<?xml version="1.0"?>
<VTKFile type="UnstructuredGrid" version="0.1" byte_order="LittleEndian" compressor="vtkZLibDataCompressor">
 <UnstructuredGrid GhostLevel="0">
  <Piece NumberOfPoints="1462" NumberOfCells="1462">
   <PointData>
    <DataArray type="Float64" Name="Elongation" NumberOfComponents="3"/>
-1.30442e-05 -2.11133e-06 -9.64795e-06
6.73446e-05 -6.82915e-06 1.75535e-05
9.27463e-05 -6.59712e-05 0.000110262
4.02157e-05 1.44174e-08 2.24863e-05
-1.62304e-05 8.7759e-05 8.17882e-05
1.68055e-05 -6.64787e-07 -1.29852e-05
-2.73235e-05 -1.44336e-05 2.88726e-06
-1.32091e-05 -2.1091e-05 1.76915e-05
-8.95175e-05 -7.95855e-05 -6.35118e-05
-4.02153e-06 -4.97352e-06 2.65238e-06
-4.70975e-05 0.000154656 0.000104354
1.62921e-05 5.02804e-05 2.77669e-05
8.80017e-05 -3.57313e-05 -7.22107e-05
-2.14624e-05 1.25942e-05 -3.11812e-05
2.61627e-05 -5.73961e-05 3.74127e-05
-9.69915e-06 -1.46836e-05 -8.02196e-06
-7.89376e-05 6.07278e-05 8.82603e-05
4.16079e-05 1.98665e-05 1.67006e-05
-4.06631e-05 1.06157e-05 9.7036e-05
5.79063e-05 1.65946e-05 -9.59877e-05
2.30528e-05 1.18505e-05 -8.58026e-06
3.5808e-05 -4.81148e-05 9.15188e-05
4.14054e-06 -4.23632e-05 -9.18524e-05
-6.98979e-05 5.33891e-05 -0.00019622
1.75562e-05 -7.05528e-06 1.36201e-06
-2.62948e-05 2.1453e-05 2.37265e-05
-2.5934e-05 2.14733e-05 3.85226e-05
2.24208e-05 -8.77501e-05 2.70913e-05
-5.24685e-06 3.30491e-05 1.79232e-05
-8.08511e-05 6.47013e-06 6.27978e-05
6.29306e-07 -2.85204e-05 1.9225e-05
-1.86326e-06 -1.47468e-06 0.00017808
5.42255e-08 1.48067e-05 -1.75511e-05
-4.79328e-05 -1.9709e-05 3.04358e-05
-7.79677e-07 1.34105e-05 -1.72708e-05
4.42911e-05 -3.71653e-05 -2.27368e-06
-4.73806e-05 -1.83979e-05 6.38259e-05
-1.89839e-05 5.1325e-05 7.26253e-05
0.00030252 -1.13737e-05 -0.00034473
-2.0093e-05 4.67202e-05 7.98148e-05
-3.20734e-05 8.42247e-05 8.54198e-05
9.74734e-06 3.85302e-05 3.89355e-06
0.000231391 0.000145128 0.000135096
2.69383e-05 -0.000204726 5.88728e-06
-8.55498e-05 -2.43529e-05 3.2483e-05
-5.98053e-05 8.54631e-05 -7.79032e-05
-8.103e-05 -2.62202e-05 5.36975e-05
-0.000488084 0.000438119 -0.000233073
-2.51567e-06 -2.10039e-06 2.25387e-05
-6.46457e-05 3.8856e-05 0.000103133
1.60166e-05 8.00351e-05 -4.22163e-05
3.30089e-05 -2.65808e-05 -1.41213e-05
8.69479e-05 1.28566e-05 9.16023e-05
3.98692e-06 -3.67632e-07 4.42195e-06
-0.000131638 0.000152621 -0.000246015
0.000135937 0.000253222 0.000346027
-1.88931e-05 -3.04278e-05 4.19756e-05
-4.04718e-05 7.22086e-05 9.21794e-05
-2.28155e-05 2.77261e-05 -4.23653e-05
1.13322e-05 2.98424e-05 3.34241e-05
1.12674e-05 -8.27126e-06 9.28635e-06
-6.88768e-06 4.91669e-05 2.64768e-05
-1.60863e-05 -6.86083e-05 -0.000119507
2.44437e-06 -5.30441e-05 5.83349e-05
-1.23957e-05 -9.75399e-06 -1.33275e-05
-4.63581e-05 8.7284e-06 2.79194e-05
0.000357613 -0.000229199 -0.000582689
6.11075e-05 0.000129833 0.00011895
-0.000144465 -0.000520057 0.000348998
4.77337e-05 9.80691e-05 6.86594e-05
-1.65661e-05 2.08158e-05 -1.29988e-05
-1.05682e-05 -5.71935e-06 -4.54009e-06
3.60666e-07 2.9348e-05 -1.84489e-05
-9.05843e-06 1.26497e-05 5.31843e-06
1.42012e-05 1.61828e-05 -6.37469e-06
-1.37757e-05 -2.08478e-05 -1.51188e-05
1.79542e-05 -1.38006e-05 1.62717e-06
2.89145e-05 5.6194e-05 2.49741e-05
-6.54688e-05 -4.8797e-05 6.11403e-05
7.00473e-05 0.000109034 5.885e-05
-1.97444e-05 -2.80519e-06 1.52321e-05
8.62026e-06 -1.75792e-05 -1.85334e-05
2.42856e-05 4.00024e-05 5.00753e-05
2.26232e-05 -4.46795e-05 3.80837e-05
-1.40604e-05 -3.91714e-06 -2.09923e-05
-9.57546e-05 -1.96975e-05 7.13803e-05
8.97686e-05 4.13725e-06 5.16941e-05
-1.80374e-07 3.77989e-08 2.93236e-07
-9.08388e-05 -9.41472e-05 -0.000105285
9.64249e-07 -2.08169e-06 8.43695e-07
1.09871e-06 -8.6422e-06 -9.19534e-06
4.00392e-05 -6.92928e-05 6.12994e-05
3.33729e-05 8.9891e-05 7.36476e-05
5.8022e-05 4.11851e-05 3.64654e-05
-1.03064e-05 -5.74251e-06 8.83756e-06
9.91685e-06 -4.44506e-06 8.10724e-06
3.02427e-05 6.62812e-05 -2.38606e-05
-4.0509e-05 3.50859e-05 1.0434e-05
-2.33354e-05 5.86737e-05 -4.90684e-05
-3.3673e-05 -2.4643e-05 8.41315e-05
-9.23798e-06 2.32212e-05 3.12133e-05
1.01877e-05 -2.63179e-05 0.000109698
2.9741e-05 0.000118861 0.000247599
1.06523e-05 -1.00073e-05 -1.89866e-05
-1.17842e-05 2.64374e-06 -1.41433e-05
-1.11477e-05 -3.62065e-06 1.66539e-05
1.21402e-05 3.00761e-05 4.29166e-05
1.46114e-05 -1.41639e-06 -9.76335e-06
2.86106e-05 -3.79763e-05 1.46957e-05
7.51608e-05 -1.77955e-05 5.85417e-05
-5.72999e-06 0.000159331 0.000128349
2.42429e-05 -2.08445e-05 4.69922e-06
4.39093e-05 5.85745e-05 1.28195e-06
1.89928e-06 1.07366e-06 8.48385e-07
2.36198e-05 6.03894e-05 1.92538e-07
3.34534e-05 0.000119057 -0.0001758
-6.84522e-06 3.57658e-05 3.62579e-05
-2.57785e-05 -1.79038e-05 3.03518e-05
-0.000155545 0.000140249 -0.000221048
-2.51221e-05 7.26954e-06 1.36584e-05
5.40808e-06 -5.89298e-06 4.58287e-06
2.95393e-06 -1.23222e-05 -1.73057e-06
-2.03608e-05 4.30939e-06 -2.35072e-05
4.58272e-05 4.0366e-06 3.06491e-06
-4.31131e-06 9.11863e-06 3.91593e-06
-7.32461e-06 -3.22496e-06 5.18628e-07
8.34086e-05 0.000181452 0.000145784
8.00347e-06 1.58769e-05 7.43163e-06
-7.63674e-05 1.81426e-05 -9.41089e-05
-1.83287e-05 1.27167e-05 1.19976e-05
3.84887e-05 7.95087e-06 -3.58709e-06
-1.39434e-05 -2.0228e-05 -1.52506e-05
3.49792e-06 -2.49211e-06 -0.000274949
-1.08445e-05 1.25721e-05 0.000463518
0.000237447 -6.94478e-05 0.000103459
9.84274e-06 5.54553e-06 8.86639e-05
-0.000414685 -0.000813862 0.00106658
0.000457484 8.52458e-05 9.59707e-05
-0.000519232 -0.000554726 0.000363506
1.19143e-05 1.10643e-05 -1.21417e-05
-1.39859e-05 1.94517e-05 6.45388e-05
9.76862e-07 1.87355e-06 2.27772e-06
0.000432878 0.000441331 -0.00125941
3.60422e-05 -0.000528358 -0.000336432
-0.00030009 -0.000217262 -7.44792e-05
8.6901e-05 6.98547e-05 -0.000709653
-0.000164156 -0.0002835 -0.00182358
-7.82971e-05 0.000124517 -0.000963671
-2.46252e-05 1.76641e-05 3.49206e-05
-5.73783e-05 -5.10084e-05 -6.01966e-05
2.42756e-05 -3.60123e-05 1.07247e-05
7.80607e-05 3.53883e-05 8.31463e-05
1.6556e-05 -6.74932e-05 -1.04021e-05
8.39961e-05 8.76232e-05 -8.52752e-06
-1.47418e-05 3.59046e-05 -3.90099e-05
0.000156336 -0.000245908 0.000496957
1.58467e-05 1.29002e-06 8.22472e-06
-7.36244e-05 0.000101935 -0.000329397
0.000104831 3.33442e-05 3.80703e-05
-8.75666e-06 -3.64048e-06 1.5237e-05
6.68831e-05 -0.000139581 0.000113636
-1.20437e-05 9.58426e-06 -3.96269e-06
4.19253e-05 1.10852e-05 0.000409171
-2.12069e-05 0.000119246 4.28791e-05
4.65981e-05 9.62765e-05 4.19712e-05
1.90963e-05 1.96314e-05 4.35555e-06
-1.50726e-05 -5.28068e-06 -2.97592e-05
3.7463e-05 -2.9295e-05 8.52298e-06
5.51895e-05 -0.000243299 7.26315e-05
-1.38897e-07 -1.12549e-05 -1.47455e-05
0.000163394 0.000107363 6.43649e-05
1.51467e-05 -1.27338e-05 1.99018e-06
1.4985e-06 2.46628e-06 1.99586e-05
-7.12748e-05 6.28271e-05 0.000475189
1.91676e-05 -2.13173e-05 1.4662e-05
-1.80356e-05 5.57728e-05 -1.70511e-05
-4.35509e-06 1.13747e-07 6.03701e-06
4.34452e-07 6.3616e-07 -1.16913e-06
2.08517e-06 1.64276e-07 2.64633e-06
8.49267e-06 5.48179e-06 -7.81769e-06
0.000271192 -0.000227227 9.02981e-05
1.9974e-05 7.00316e-05 -2.2091e-05
2.81918e-05 -4.94719e-05 2.68518e-05
1.17083e-05 5.64955e-05 5.42666e-05
1.96129e-05 2.2369e-05 5.39279e-07
-2.90119e-05 3.62278e-06 3.72433e-05
-2.97773e-06 -2.05513e-05 -2.14854e-05
-4.30069e-05 3.10411e-06 -5.07096e-05
2.84033e-06 8.76256e-06 1.76247e-05
-3.41506e-05 -3.84482e-05 6.24575e-05
3.82067e-05 5.75569e-05 3.4159e-05
-6.10221e-05 -6.01689e-05 -1.89061e-05
-1.55861e-05 2.86115e-05 -1.59875e-05
8.49495e-07 -3.15232e-07 1.64812e-06
2.79506e-06 1.82769e-06 1.1698e-05
-3.22775e-05 -6.04179e-05 6.20421e-05
2.414e-05 6.53804e-05 6.34721e-05
-0.000198651 -0.000245109 -0.000472455
2.46793e-05 1.08772e-05 9.04598e-06
1.5085e-05 1.15515e-05 -3.20244e-06
-7.59196e-05 0.000158455 -6.08018e-05
3.74158e-06 -1.9636e-07 7.97729e-06
-0.00010489 -6.5823e-05 9.62394e-05
1.39826e-05 -7.39838e-06 1.24024e-05
1.46367e-05 -2.20507e-05 -1.60804e-05
-5.2023e-07 -1.48659e-06 1.93252e-06
3.56803e-06 3.91657e-05 -9.55105e-07
-2.16964e-05 1.94699e-05 9.09905e-06
3.73827e-06 2.62692e-06 -4.12861e-07
6.73053e-06 -8.28923e-06 4.26564e-05
-5.47455e-06 1.43244e-05 1.09797e-05
-9.97648e-06 1.96489e-05 -3.35377e-06
-1.29722e-05 1.81378e-05 -1.769e-05
2.29236e-05 -1.30708e-06 1.37245e-05
2.11602e-06 -4.53567e-05 -1.82033e-05
-1.26657e-05 -2.14684e-05 -7.51701e-06
3.31434e-06 -1.10232e-06 -6.34945e-06
-1.81813e-06 -1.7744e-05 1.66438e-05
5.35592e-05 -5.79713e-06 -1.81515e-05
1.42674e-05 -7.17489e-06 1.69984e-06
1.69124e-05 4.00932e-05 4.55381e-05
4.06646e-07 9.14672e-07 -8.93461e-07
-3.27159e-06 2.042e-05 -7.62327e-05
-8.16394e-05 4.67107e-05 0.000117703
4.25251e-05 -9.2963e-05 4.45063e-05
3.60874e-06 1.8751e-05 1.00772e-05
-4.92444e-06 -5.64872e-06 -4.02509e-07
-4.49209e-06 6.99136e-06 -3.38171e-05
-6.53738e-05 4.68966e-05 -3.94382e-05
-2.34339e-05 -3.53881e-05 5.59311e-05
-1.28801e-05 -2.71071e-05 1.84321e-05
-5.56059e-05 3.36502e-05 1.59631e-05
3.53785e-05 -4.25363e-05 2.7211e-05
3.52193e-06 -3.40253e-05 2.50004e-05
-3.44554e-05 8.32467e-05 5.40975e-05
-0.000145175 3.28306e-06 -0.000791109
-9.19906e-06 -5.42966e-06 2.666e-06
1.93544e-07 -3.81937e-07 5.18466e-07
3.09299e-05 -0.000101869 2.8804e-05
1.19752e-06 -9.05565e-07 -1.53445e-06
-1.42536e-05 1.86635e-06 -2.42937e-05
-2.59593e-05 2.6949e-05 1.04247e-05
-9.15563e-06 1.36183e-05 -1.66916e-05
4.79946e-05 -2.12205e-05 1.09208e-05
5.20922e-06 -8.56828e-06 -6.55176e-06
1.12292e-05 5.25749e-05 9.74138e-06
-4.30596e-06 2.01952e-06 -2.92715e-05
3.00982e-05 4.06471e-05 4.76634e-06
2.88977e-05 2.26042e-05 -6.39016e-05
1.5122e-05 -7.96551e-06 1.4142e-05
1.50212e-05 1.45175e-05 2.2754e-07
1.66907e-07 5.27928e-08 1.39983e-06
0.00026933 7.8021e-05 -0.000112452
4.08605e-05 -3.02624e-05 3.04169e-05
-5.06504e-06 5.05709e-06 -2.70256e-07
7.01865e-07 -4.27231e-06 6.38696e-07
-4.64737e-05 2.41416e-05 2.9924e-05
2.10966e-05 5.04756e-06 -2.19423e-05
-1.06662e-05 4.19784e-06 1.31929e-05
-8.89305e-06 4.12089e-05 3.81898e-06
0.00106825 -6.42943e-05 -0.00206696
-1.76577e-06 4.74594e-06 3.99625e-06
1.30918e-06 -2.25482e-08 -1.668e-06
9.3665e-05 0.000115343 -0.00068142
-4.75144e-05 1.68899e-05 5.56842e-05
7.43808e-06 2.54465e-06 -9.06128e-06
-0.000331822 -0.000459809 0.00135355
0.000581603 0.000958647 0.00249736
-3.22925e-05 9.3727e-06 -6.55311e-05
-4.39036e-05 1.65016e-05 5.02827e-05
-5.25272e-06 2.50862e-05 2.14866e-05
2.17929e-05 -1.31988e-05 3.07624e-05
3.29524e-05 5.34379e-05 2.18784e-05
-3.59907e-06 6.54129e-06 1.40812e-05
-1.54185e-06 1.42839e-05 -3.74503e-05
5.14746e-05 -3.26779e-05 -1.29945e-05
-0.000129917 -4.85409e-05 4.16412e-05
0.00057117 0.000518709 -0.00114645
3.17179e-05 -3.17598e-05 2.30649e-05
0.000142661 -1.40234e-05 -0.000347731
-0.000241849 -0.00022641 0.000222814
5.29534e-05 2.40501e-05 1.33178e-05
3.31199e-05 -1.70329e-06 1.52689e-05
2.18606e-05 4.46186e-05 9.28629e-05
0.000135346 -5.57367e-06 -0.000258415
2.77119e-06 9.24216e-07 -2.38675e-06
-7.94401e-05 -4.965e-07 -8.91595e-05
3.08455e-05 -3.52771e-06 1.10979e-05
5.96581e-05 -5.09204e-05 -8.6145e-05
-0.000342915 -0.000123841 -0.000357697
-5.64295e-05 -3.8914e-06 7.4777e-05
0.000278118 -0.00052605 -0.00030287
7.12346e-06 -5.2198e-05 -1.95559e-05
1.6884e-05 -7.73819e-07 2.30373e-05
1.38172e-05 7.27852e-06 7.61689e-06
-6.45864e-06 1.40524e-05 -1.69436e-05
-0.000186519 -0.000169262 -0.000273057
-7.76436e-05 -0.000144169 -0.00019303
1.03635e-06 1.85891e-07 -8.0438e-07
-0.000203948 8.54928e-05 -0.000592502
0.00013702 0.000334167 0.000367548
4.58929e-05 2.77175e-05 -2.60768e-05
8.94167e-06 -4.31166e-06 -9.1527e-06
3.9318e-05 2.48656e-06 3.93427e-05
4.34423e-05 1.40252e-05 5.49861e-05
-4.41365e-05 -8.70258e-06 0.000121524
4.55277e-05 -2.2677e-05 0.000244631
-6.77292e-06 5.17667e-05 -1.91624e-06
0.000304933 0.000137039 -0.000415059
3.56772e-07 -2.31062e-07 -2.60753e-07
2.04875e-05 1.78749e-06 -1.83503e-05
-6.46605e-06 4.46663e-06 -9.87577e-06
6.6435e-06 4.84884e-07 -7.8466e-09
7.50168e-05 -4.94196e-05 -3.09304e-05
6.18295e-05 5.16606e-05 8.00725e-06
-8.27994e-06 1.86787e-05 -9.54506e-06
-1.3907e-05 1.97645e-06 -6.14032e-06
4.29631e-07 -1.56404e-06 6.69539e-07
9.48521e-05 3.19435e-05 3.22098e-05
-9.02886e-06 7.37647e-05 -3.94218e-05
1.55339e-05 0.000200437 -0.000175784
8.52165e-06 6.01042e-06 1.11486e-05
-5.01451e-05 -1.98144e-05 4.59603e-05
1.22735e-05 9.21847e-06 -1.74309e-05
0.000107897 3.89318e-05 8.53028e-05
-3.74289e-05 1.89014e-05 6.84121e-06
-1.77018e-05 1.50471e-05 -1.039e-05
-3.88066e-05 3.27229e-05 2.64135e-05
7.11493e-06 2.30262e-06 6.55222e-06
-1.63932e-05 7.68604e-06 -1.38452e-05
9.97166e-05 3.43775e-05 8.81385e-06
-8.56364e-06 3.64062e-06 6.55343e-06
-5.92972e-06 -1.65666e-05 -2.71608e-07
1.42451e-05 -4.0879e-05 3.27368e-05
-8.51422e-05 0.000116531 0.000269273
1.12133e-05 3.8397e-05 3.59315e-06
1.43469e-05 2.4034e-06 -1.76148e-05
8.38222e-07 -2.16424e-05 -1.37629e-05
-1.10557e-05 2.13809e-05 -2.89247e-05
-5.69976e-06 1.89912e-05 2.39335e-05
3.9419e-05 -4.08184e-05 5.07502e-05
2.73033e-05 2.54379e-05 -2.27618e-05
1.85203e-05 -1.5628e-05 9.65175e-06
-5.92468e-06 -7.8112e-06 1.0266e-05
-3.58485e-05 3.07602e-05 -3.43317e-05
-3.70412e-06 1.92449e-07 -4.64153e-06
-4.03719e-05 -1.18987e-05 -4.42426e-06
6.56623e-06 -3.61838e-05 1.82905e-05
4.66687e-07 1.8047e-06 -2.52574e-05
3.41669e-05 0.000138507 -1.57106e-05
6.66268e-05 6.5213e-05 -5.82836e-05
4.72784e-06 1.0731e-05 1.88906e-05
1.76803e-05 -1.73194e-05 5.59493e-05
-0.000145748 -0.000248799 -0.000356801
7.28623e-06 1.48156e-05 1.47655e-05
1.69768e-05 -2.65075e-07 -1.13952e-05
-1.48525e-05 -1.54144e-05 -2.44171e-05
1.4711e-05 1.59449e-05 -4.16512e-06
2.44496e-05 6.57631e-05 2.8638e-05
2.85168e-05 0.000124589 6.47214e-06
-7.56828e-05 -0.000121884 1.06691e-05
-1.81187e-06 -9.58423e-06 1.90451e-05
-6.66498e-07 3.11354e-06 -5.95163e-06
-3.37663e-05 -1.43098e-05 -1.82311e-05
-2.8479e-05 -0.000203958 0.000652826
-2.14807e-05 -0.000104496 1.4115e-05
5.01552e-05 0.000123216 -0.000149304
-3.3788e-07 3.23178e-06 3.64863e-06
6.91165e-06 -4.56999e-06 2.33339e-05
1.15677e-06 -1.8315e-05 1.13856e-05
-2.32576e-05 1.78271e-05 -4.53316e-06
-2.56417e-05 -6.03112e-05 -5.19391e-05
-0.000182465 3.43715e-06 0.000277695
6.55191e-05 4.30077e-06 -6.24754e-05
-1.70538e-05 -2.72956e-05 -0.000381745
-2.33927e-06 -2.9044e-06 0.000610365
-5.95626e-07 -1.40351e-08 -1.48621e-05
3.26796e-05 7.29472e-05 3.71481e-05
1.14778e-06 1.56382e-06 -9.20687e-07
-3.38217e-05 1.35222e-06 3.27654e-05
4.75345e-06 -2.23645e-06 2.36888e-05
-3.55365e-06 -3.17022e-06 4.54594e-06
6.38217e-07 2.61762e-05 1.41467e-05
-3.21026e-05 -6.07813e-06 -1.95487e-05
0.000342107 -0.000107175 -0.00181699
-2.99701e-05 -0.000193759 0.00112318
9.25202e-06 -4.98352e-06 4.77748e-06
0.000239035 0.000126752 7.7166e-05
-4.48217e-06 -4.7556e-06 8.81708e-07
7.71508e-06 -1.1192e-05 5.41981e-06
4.2752e-06 1.41966e-05 9.78388e-06
4.09008e-07 -1.38685e-06 2.26709e-06
-2.38665e-06 3.67127e-06 -4.23132e-07
-3.71881e-05 -0.000230317 0.000171573
7.97428e-05 0.000113504 -0.000339196
-2.32821e-06 -2.23247e-07 -3.47933e-07
1.65602e-05 -5.73935e-06 1.69246e-05
-1.03153e-06 -6.27545e-06 4.43572e-06
1.10529e-05 1.40109e-05 -5.09695e-05
1.17391e-06 1.89539e-05 1.24073e-06
3.61657e-06 -1.13506e-05 -3.64447e-05
1.19331e-05 -3.37434e-05 -2.50354e-05
3.64012e-05 3.13659e-05 -2.96918e-05
-0.000101028 -0.000126793 6.40088e-06
0.000490029 -8.49825e-05 -8.74628e-05
0.00033425 -0.000221252 -0.000106407
-1.19285e-05 2.32805e-05 -3.40914e-05
2.96274e-06 3.42108e-05 4.36858e-06
7.60958e-06 -4.1094e-07 1.165e-05
3.80892e-05 -2.79459e-05 -3.85697e-05
-1.89205e-05 -3.59411e-06 -1.34363e-05
-1.44001e-05 2.26267e-05 -4.37024e-06
0.000132074 -4.93456e-05 4.94112e-05
-6.74227e-06 1.65574e-05 -1.78073e-07
-3.26176e-06 9.80363e-06 1.64351e-07
2.55111e-06 5.85999e-06 2.59787e-05
-3.76869e-05 -1.14123e-05 1.88527e-06
4.26955e-05 -3.76506e-06 1.9631e-05
-6.16976e-05 4.88679e-05 -1.76058e-05
-5.54059e-05 3.11904e-05 -2.32066e-05
5.69812e-06 5.86488e-06 2.80103e-06
-2.2602e-05 -2.18734e-05 -1.28639e-05
2.23796e-05 -2.85968e-05 -1.72009e-06
-1.26343e-05 4.98612e-05 -4.39689e-05
-7.02117e-05 -7.88432e-05 -3.56406e-05
6.27793e-06 1.18022e-05 -4.47529e-06
-1.27107e-05 -7.22652e-06 2.48847e-05
5.9187e-05 -0.000287678 -0.000617082
-2.62456e-06 -1.00008e-05 -6.41762e-06
-3.13428e-05 -6.40062e-05 4.44065e-05
-3.74353e-05 7.30169e-07 2.71181e-05
8.90381e-05 -0.000133205 0.000157039
9.81852e-08 -1.58167e-05 -7.12428e-06
9.31254e-06 -5.20188e-07 6.24331e-06
1.10083e-05 -1.17033e-06 1.69665e-05
3.32837e-06 1.2369e-05 1.83731e-05
1.28701e-05 -2.91278e-05 1.4688e-05
1.51594e-05 2.45078e-05 -9.11711e-06
1.87427e-05 -1.13967e-05 4.61543e-05
2.0172e-05 -5.89022e-05 2.42985e-05
-8.7319e-06 1.24518e-05 1.7661e-05
-4.22038e-06 -2.58828e-06 -1.14524e-05
-7.72696e-06 -5.05153e-05 -1.03705e-05
-0.000121 -6.78401e-05 -0.00019508
4.80378e-06 3.12721e-05 -1.86656e-07
-1.3338e-05 -5.54087e-06 -1.37185e-05
4.35195e-05 2.61467e-06 6.07484e-05
-0.00129517 -0.000151293 -0.001573
3.4601e-06 1.25155e-05 -8.5652e-06
8.81418e-06 -0.000765221 0.000702647
-5.60706e-05 -6.50966e-06 -7.17381e-05
-2.28477e-05 -0.000124016 0.000151155
8.67803e-06 2.66953e-05 -3.23909e-06
-2.09513e-05 6.95285e-06 1.89684e-05
6.45184e-05 -3.31054e-05 -2.82347e-05
2.55109e-05 -2.0541e-06 -2.24759e-05
-1.29807e-05 -1.76906e-05 2.97623e-06
-1.69613e-05 4.36146e-05 -2.69071e-05
-3.42016e-05 7.96529e-06 5.88248e-05
-1.0561e-06 1.28328e-05 1.03174e-05
4.46166e-06 4.08251e-05 3.36974e-05
3.54572e-06 1.02247e-05 -1.38102e-05
0.000161815 0.000123266 -0.000219096
-2.80817e-05 4.6513e-05 4.10754e-06
0.000114945 -6.45846e-05 -0.000221473
6.15939e-05 7.11789e-06 4.55883e-05
-4.43981e-06 -6.12343e-06 -7.84982e-06
-1.37877e-05 1.6984e-05 2.49095e-05
5.31186e-06 -2.84528e-06 1.91971e-06
-0.000123773 0.000136882 -0.00030375
9.3808e-06 -2.24628e-05 -2.51024e-05
-4.35167e-05 -3.6994e-05 -1.45385e-05
-3.06854e-05 2.01541e-06 4.15436e-06
0.000129057 8.57775e-05 -0.000103236
-3.20966e-06 -4.1884e-06 -7.46878e-07
0.000364629 0.000108293 -0.00112355
-0.000212598 1.58975e-05 -0.00309628
-2.45321e-05 0.000102561 1.80237e-05
-5.36583e-06 -0.000155645 9.84038e-05
-1.19344e-07 -1.07607e-05 -2.92921e-05
-3.05973e-07 6.03593e-06 1.23478e-06
-1.73733e-05 1.34561e-05 1.17344e-05
-4.99106e-06 8.68337e-06 0.000172703
5.95987e-06 -1.0055e-05 7.53358e-06
0.000181475 -0.000172151 -7.3372e-05
-0.000251718 -4.17293e-05 -5.27753e-05
2.19567e-05 -1.5739e-05 6.69156e-06
-2.89044e-05 2.08194e-05 4.3751e-06
9.592e-09 1.26895e-05 0.000155222
-0.000694224 0.000818335 0.00221821
3.28268e-07 -8.83869e-06 -2.38113e-06
0.000105351 -2.97402e-05 -2.94692e-05
-3.42245e-05 -3.18521e-06 1.70549e-05
-1.38315e-05 -8.44488e-06 2.13915e-05
5.96515e-06 -1.28198e-05 8.15564e-06
-2.16281e-05 -1.2866e-05 2.58667e-05
-8.33225e-05 -2.33297e-05 0.000137781
-1.29764e-05 8.57592e-06 1.36515e-05
-0.000796813 -0.00011776 -0.000440526
-0.000147143 0.000124897 0.000191431
-9.06257e-05 -2.46493e-05 -7.34563e-07
-1.01453e-05 -8.90732e-06 4.55946e-06
0.000133747 -1.09062e-06 -0.000119793
-0.000497118 0.000384058 0.000303099
4.12001e-06 -2.3698e-07 -1.11461e-05
-2.10458e-06 2.53535e-06 1.22591e-06
2.74245e-05 1.63979e-05 9.87824e-06
2.36327e-07 1.39792e-06 -2.65056e-10
5.93256e-06 7.07385e-06 -4.63252e-06
4.5261e-07 2.56187e-06 1.32507e-06
1.71803e-05 2.28542e-06 9.99015e-06
-2.58468e-05 -9.24296e-06 -5.55142e-06
-6.34405e-05 2.72803e-05 3.68101e-05
-3.11162e-06 -2.11813e-05 1.43475e-05
8.19285e-06 1.32362e-05 1.03312e-05
3.90466e-06 3.66694e-05 1.6273e-05
-0.00036406 -0.000179911 -0.000458624
-4.65771e-06 1.48255e-06 -1.18323e-06
-0.000456994 0.000129454 0.000144499
7.15897e-05 -6.01265e-05 -2.06977e-05
1.68597e-05 3.12555e-07 1.10263e-05
-0.00017164 -3.20282e-05 -0.000467861
0.000212174 0.00017871 0.000627615
-0.000103333 0.000370671 -8.86076e-05
-0.000117359 -0.000110273 -0.000373496
2.40102e-05 -2.30169e-05 -8.62171e-06
2.1015e-05 1.40151e-05 -0.00053345
-5.61711e-05 6.14015e-06 3.28025e-05
-7.31526e-07 -8.53636e-07 8.5204e-06
-1.21103e-05 -1.72543e-05 2.96184e-05
3.28525e-06 -2.65674e-05 2.11425e-05
-1.79794e-05 5.65167e-06 9.07605e-06
6.22703e-06 2.08534e-05 2.78025e-06
-5.85472e-05 5.0746e-05 -3.78847e-05
-3.43439e-05 -5.62163e-06 1.12589e-05
6.93224e-05 6.19079e-05 -0.00011626
-3.34493e-06 -2.4956e-06 -8.41256e-08
-1.96858e-05 -5.42876e-06 -1.16874e-05
-8.89185e-06 8.47713e-06 -2.89473e-05
-4.63812e-06 -2.53276e-05 -1.61233e-05
-7.55104e-05 -0.000140422 0.000117399
-4.36576e-05 0.000528703 -0.000680389
-5.17301e-07 2.28573e-06 4.84145e-06
0.000439689 -0.000448578 -0.00012962
-1.24477e-05 -9.97332e-06 -7.06584e-06
0.000338548 0.000695555 0.000881462
-5.08868e-05 -4.71999e-05 -0.000168078
-0.000171836 0.000247167 -0.000402892
-1.09547e-08 -3.7659e-07 1.03289e-06
0.000278893 9.64585e-06 -0.000100334
-7.55983e-05 0.000220766 0.00073757
-8.98491e-06 -9.88085e-05 -0.00054678
-0.000106648 -0.000452448 -0.000443585
-1.69e-06 2.23913e-09 -2.47574e-05
1.97888e-05 2.78426e-05 1.20952e-05
1.33192e-05 -9.9932e-06 -1.22229e-05
-2.02568e-05 -2.74881e-05 1.33939e-05
1.13386e-05 1.46222e-05 -8.62278e-06
-4.78013e-05 3.1982e-05 -5.86069e-06
-9.38958e-06 -5.83254e-06 5.48921e-05
-7.19187e-05 -2.20476e-05 3.33868e-06
-3.41988e-05 -8.75067e-06 -1.44613e-06
-4.45387e-05 -5.26383e-05 5.76207e-06
-2.21444e-06 -1.38483e-05 7.96393e-06
-1.54999e-05 7.5788e-06 -5.87246e-06
5.66434e-05 4.88552e-05 1.64999e-05
-3.33034e-05 -0.000111838 -7.66752e-05
3.04406e-05 1.4665e-05 3.08962e-06
3.77507e-05 0.000128285 0.000219074
-1.16551e-05 3.8045e-05 0.000144533
-5.90584e-07 -2.63263e-05 -5.47464e-05
4.3213e-05 1.75989e-05 1.40626e-05
-1.48299e-05 6.22426e-06 1.86068e-05
3.40209e-05 4.70383e-05 -3.11952e-05
-3.53798e-06 -1.4192e-06 -2.81927e-06
-1.1106e-06 -6.0178e-06 2.97361e-05
2.92325e-06 -7.83366e-05 -4.02591e-05
-5.4638e-05 -3.50933e-05 -4.17831e-05
4.61839e-06 1.4975e-05 -4.96649e-06
2.14193e-05 1.59172e-05 -6.35593e-06
-5.63817e-06 -6.52288e-06 -1.35466e-05
-5.12927e-05 8.6244e-05 9.87891e-05
-4.9577e-06 1.65919e-05 5.99933e-06
-4.37285e-05 -1.42286e-05 -1.55621e-05
-2.31118e-06 1.49559e-07 1.08166e-06
-0.000312782 -0.000270341 -0.000426837
2.94987e-06 -1.58804e-05 -6.88636e-06
-1.9763e-05 1.51075e-05 -1.51452e-05
4.11933e-06 1.95593e-06 7.77702e-07
1.54997e-06 1.17913e-06 6.48327e-07
-4.00444e-05 0.00019545 0.000269779
1.00087e-06 -5.37494e-06 -5.58758e-07
1.33882e-05 7.25815e-05 -3.26549e-05
-4.91891e-06 9.39657e-07 -1.16915e-05
1.56051e-05 1.07733e-05 -2.40538e-05
0.000134395 -3.47396e-05 2.03711e-05
-1.37299e-06 -1.59027e-06 5.32088e-07
-0.000162239 -0.000248369 5.35117e-05
-0.000216962 -0.000309046 0.000201764
0.000202657 3.4737e-05 -0.000176631
-3.41472e-07 -2.50098e-05 8.68541e-05
-5.98805e-05 2.64807e-05 6.33956e-05
-3.34662e-05 -3.4048e-05 -2.41356e-05
4.12766e-05 -1.68594e-05 -2.91795e-05
9.27079e-05 -0.000294965 7.27595e-05
8.76376e-06 -3.35109e-06 2.49236e-06
-9.43881e-06 4.61219e-06 8.98212e-05
5.47753e-08 6.60199e-06 -7.99887e-07
2.73066e-07 -5.20708e-06 -2.01339e-06
-0.000111046 -8.48427e-05 5.38426e-05
4.45575e-06 6.38474e-06 5.57606e-06
1.76265e-06 -6.2411e-06 -2.15714e-06
1.80245e-05 1.27237e-06 -2.09552e-06
-6.47531e-07 -2.15631e-06 -5.1113e-06
1.39438e-05 9.70732e-06 6.88176e-06
8.64192e-07 -1.08744e-06 4.22095e-06
5.58503e-06 -3.32605e-05 2.79425e-06
-6.53236e-06 -6.24586e-06 1.41592e-05
-2.46007e-05 -7.06716e-05 -1.83597e-05
-1.8662e-05 -3.33801e-06 1.45234e-05
-7.94314e-05 -9.25411e-05 -0.000116202
1.88666e-05 5.00876e-05 -5.04327e-06
7.35471e-05 2.15821e-06 -3.25906e-05
-0.000204847 -0.000691185 -0.000603233
-0.000346619 1.30486e-05 -0.000499361
9.53249e-06 3.09004e-06 6.79016e-06
-2.34517e-05 1.61183e-05 1.79495e-05
-2.49512e-07 1.64986e-09 -1.23946e-05
-1.23897e-06 -8.79266e-08 -3.76538e-05
-1.2501e-05 -1.71024e-06 -8.20769e-06
1.16734e-06 3.82913e-06 4.19508e-07
-5.93603e-07 4.07108e-07 7.28312e-05
1.31262e-05 2.20004e-05 1.79639e-05
-2.28341e-06 -6.86911e-07 3.06668e-05
-2.51637e-06 -1.38535e-06 1.86527e-06
-4.762e-05 -1.62821e-05 -1.31778e-05
-3.80148e-05 4.00483e-05 -2.76229e-05
5.81962e-05 9.8991e-05 -5.1829e-05
-1.995e-05 -2.35292e-05 0.000458636
-1.64044e-05 0.000133323 -2.44702e-05
0.000428598 -0.000369252 0.000451629
-3.16074e-05 1.51765e-05 -2.09797e-05
1.81429e-05 -4.49144e-05 3.8884e-05
-9.72009e-05 4.42449e-05 -0.000153261
-0.000684851 -0.000117198 -0.00063064
-3.62848e-05 2.78317e-05 4.98486e-05
-6.80839e-05 3.19815e-05 1.27487e-05
1.67517e-06 -2.08878e-06 -8.07614e-07
-1.40339e-05 -4.56582e-05 -1.29374e-05
2.34598e-05 7.00703e-06 -1.19669e-05
1.22038e-05 -1.63138e-08 5.50527e-07
0.000176648 -0.000305338 0.00114338
-1.45418e-05 7.97604e-06 -7.21999e-06
-0.00069423 -0.00016421 -0.000328779
0.000178538 -1.50807e-05 0.000528256
-6.24482e-05 -4.79086e-05 6.405e-05
2.43181e-05 -4.53102e-05 5.31897e-05
5.75438e-06 9.1787e-06 1.09993e-06
2.5505e-05 -2.09437e-05 -6.2139e-06
2.49779e-06 5.62111e-06 1.79207e-05
1.2703e-05 -8.46624e-05 0.000177535
6.80421e-06 8.01197e-07 -2.40232e-06
2.15675e-06 9.3208e-06 -1.14865e-05
0.00148507 0.000325192 -6.28372e-05
-3.7425e-05 0.000231541 4.67549e-05
-4.56707e-05 1.81769e-05 1.11268e-05
8.36017e-05 -9.3875e-05 6.0916e-05
0.000122836 9.08148e-05 8.29705e-05
-0.00199041 0.000532312 -0.00541528
-6.90864e-06 1.80791e-05 -5.88659e-06
1.60136e-05 2.11556e-05 -1.37276e-06
-2.49014e-07 -4.85964e-06 -9.12812e-08
1.82195e-05 -2.58129e-05 -2.18599e-05
0.000226191 0.00015283 0.000187773
2.32494e-05 -2.43656e-05 0.000108239
-6.78785e-06 -1.74856e-05 7.60133e-09
1.56403e-05 1.37313e-05 -2.88777e-06
-8.28257e-05 2.43486e-05 -1.7636e-05
-0.000197836 0.000215261 3.08922e-05
1.87566e-05 -4.28301e-06 7.00365e-07
2.75199e-06 -2.08274e-05 -4.16722e-06
-1.72192e-05 2.64647e-05 -1.31813e-05
-3.96303e-06 3.23345e-05 -1.27108e-05
8.11376e-06 5.06019e-05 -0.00031225
-9.8189e-06 -1.46749e-05 -1.13945e-05
-1.90408e-05 -3.86707e-06 1.32736e-05
-1.92612e-05 -6.97254e-06 -9.35513e-06
6.1257e-06 4.29413e-05 4.15949e-05
2.2019e-05 -3.53248e-05 -1.11357e-06
2.47627e-05 5.05986e-05 1.28759e-05
3.18861e-05 2.1763e-05 3.82061e-05
-0.000143817 -5.49979e-06 -8.16211e-05
1.19472e-05 -1.07555e-05 4.05426e-06
3.2651e-06 1.07796e-05 -6.48264e-06
-0.000154598 -1.9097e-05 -0.000175761
-1.25525e-05 1.67496e-05 3.62006e-06
-6.17843e-06 -1.32242e-05 1.87844e-05
-0.000461313 -4.50498e-05 0.000524708
-8.52369e-08 -2.20124e-05 1.04515e-05
7.01968e-05 -0.00020542 3.15469e-05
-1.16713e-05 -5.41695e-06 -8.76428e-06
-2.49148e-06 -2.93409e-06 -2.07729e-06
5.788e-06 2.99375e-05 -2.81663e-05
4.75099e-06 -3.2965e-05 -2.31303e-05
2.18934e-05 6.06254e-05 1.51445e-05
-8.68336e-06 1.48801e-05 1.57934e-05
4.65568e-06 -1.32943e-06 1.91211e-05
-2.33633e-05 -6.65458e-06 -1.38415e-05
-8.72238e-06 5.93214e-06 1.10175e-07
-2.07411e-05 2.12286e-05 -2.37826e-06
-7.65834e-05 1.03034e-05 4.75256e-05
2.98286e-05 2.66099e-05 -2.0055e-05
3.66539e-06 -2.07078e-05 -4.34493e-06
0.000204085 2.46964e-05 6.53546e-05
-0.000123336 -0.000222216 9.28098e-05
5.15499e-05 -6.54467e-06 -4.84227e-05
2.53797e-05 -3.86974e-05 -4.58256e-05
-1.9758e-08 -3.08563e-06 -1.01608e-06
-5.92018e-05 -0.000547009 0.00091206
1.80001e-06 -1.54671e-06 -5.81069e-06
3.11698e-06 7.38368e-06 -2.20346e-06
-2.65163e-05 1.24979e-05 1.676e-06
6.19633e-06 0.00014391 -0.000133661
-1.23266e-05 4.35262e-06 -6.94293e-07
1.84422e-05 -4.49313e-07 2.02913e-06
1.03977e-06 5.475e-06 -2.14897e-06
-4.57675e-06 1.58705e-05 -6.1283e-06
-1.6694e-05 3.59479e-05 7.53988e-07
2.10905e-06 -5.05866e-06 7.98686e-06
1.71545e-06 1.34186e-05 7.29462e-06
-1.97601e-06 -3.11873e-05 -1.93311e-05
-8.47694e-05 5.7394e-06 1.00547e-05
-3.27586e-05 -1.98244e-05 3.93669e-05
-7.91349e-06 5.96303e-05 4.49811e-05
3.24079e-05 3.15628e-05 -0.000121931
-3.98001e-05 -4.67397e-06 2.69791e-05
7.70198e-06 -7.16152e-05 0.000165345
-2.6179e-05 -0.000170412 0.000164127
1.20334e-06 -6.85743e-06 -4.41275e-06
9.41609e-06 1.48411e-05 1.08363e-05
-1.30851e-06 1.03261e-06 1.93854e-06
8.6213e-05 -0.000267368 0.000267312
-1.9159e-05 2.35826e-06 -8.10504e-07
-5.51659e-07 4.77281e-06 9.14939e-07
-0.000156064 -0.00017039 0.000257794
3.31341e-06 -4.16172e-06 -2.65915e-06
3.57501e-07 -1.80196e-07 8.20887e-07
-1.10817e-05 -9.84117e-06 -5.37426e-05
-0.000136157 -3.52049e-05 -7.94504e-06
-0.000141568 -0.000318599 0.00043513
-1.48183e-06 7.41136e-06 -5.74605e-06
8.4254e-05 -0.000295095 -0.0010386
-0.000189751 -0.000126892 -0.000185858
-1.40097e-05 -4.87296e-05 1.46299e-05
-1.07199e-05 -6.49096e-06 -1.83598e-05
0.000118654 -1.99738e-05 1.94661e-05
-7.17111e-05 -5.75941e-05 4.16794e-05
-5.25562e-05 0.000155011 0.000178249
-3.37258e-05 -2.4953e-05 0.000243482
-0.000739216 0.000173079 0.00301305
8.52841e-05 -6.70553e-05 -8.49324e-05
-4.88201e-06 -3.73841e-05 5.01917e-05
1.53467e-05 -5.11429e-06 2.53463e-05
3.5124e-05 -5.28946e-06 -3.59499e-05
-4.81685e-05 -3.85462e-05 -0.00020654
-0.00020045 8.9598e-05 -0.000683718
-2.61519e-06 -3.24658e-06 -1.81697e-06
-1.55147e-06 -1.34913e-06 -1.34866e-06
-6.69265e-06 8.26769e-06 5.77825e-06
0.000258525 7.96429e-05 0.000295679
-4.45653e-05 2.04546e-06 -2.33252e-05
1.22022e-05 3.67878e-06 -1.0129e-05
8.79707e-06 1.99711e-06 4.82306e-07
7.82391e-05 -0.000105298 -0.000128806
-1.06006e-06 -2.73202e-05 -6.01492e-05
1.10218e-05 -3.27635e-06 4.1509e-05
8.91618e-06 -2.77855e-05 -9.64575e-06
5.55582e-05 -0.000195197 0.000128748
2.1818e-05 0.000402439 -0.000122601
-5.16875e-06 -9.92056e-06 -1.53456e-05
-0.00051568 -0.000185628 0.000751148
-3.00637e-06 -2.05178e-05 3.16825e-05
3.75177e-05 -4.25962e-05 1.87813e-05
0.000366311 -0.000842632 -0.00112764
-2.27213e-05 3.47142e-05 -6.67451e-05
-1.79212e-05 -9.44731e-07 -3.53347e-06
-6.14258e-06 -4.19502e-06 2.52127e-06
-1.00957e-05 1.57532e-05 3.86367e-06
-1.5039e-05 -8.89592e-07 1.42187e-05
2.63626e-05 -5.45593e-05 2.01976e-05
-1.0171e-05 -5.59736e-06 -1.18109e-06
1.35086e-05 -4.97389e-07 7.43501e-06
0.000119689 -9.68514e-06 -0.000157482
-5.21033e-06 -8.34223e-07 2.67105e-06
-1.95328e-05 -1.27066e-05 -1.31191e-05
3.15271e-05 -2.08634e-05 -2.90547e-05
0.000108589 -1.71696e-05 -0.000372172
-2.6125e-06 5.10868e-07 3.94845e-06
-1.33415e-05 -2.11653e-05 -3.42556e-05
3.94062e-05 5.76846e-06 2.29008e-05