<?xml version="1.0"?>
<VTKFile type="UnstructuredGrid" version="0.1" byte_order="LittleEndian" compressor="vtkZLibDataCompressor">
 <UnstructuredGrid GhostLevel="0">
  <Piece NumberOfPoints="1154" NumberOfCells="1154">
   <PointData>
    <DataArray type="Float64" Name="Elongation" NumberOfComponents="3"/>
5.2331e-06 -1.98705e-06 3.79329e-08
4.2571e-06 -3.2188e-06 2.74685e-08
3.22447e-06 -2.52616e-06 1.91242e-08
8.20035e-07 -4.18503e-06 1.47426e-08
5.69171e-07 -2.19201e-06 9.52041e-09
2.61301e-06 -4.9443e-06 2.94676e-08
2.0833e-06 -4.13526e-06 2.49682e-08
1.57313e-06 -4.98178e-06 3.14226e-08
2.4954e-08 -3.96596e-06 2.55351e-08
-6.44528e-06 5.0812e-06 -1.20023e-07
4.71136e-06 -6.15237e-07 2.24391e-08
2.34792e-06 -2.52554e-06 9.02383e-09
3.68629e-06 -1.36458e-06 1.35472e-08
2.22556e-06 -1.34004e-07 6.33245e-09
1.34347e-06 -6.37969e-07 3.1223e-09
2.20741e-06 -5.09411e-07 6.4627e-09
1.82568e-06 -1.54813e-07 4.82795e-09
1.33726e-06 -5.72949e-07 3.46954e-09
-3.8216e-08 -1.34132e-05 -2.44703e-06
8.42848e-07 -3.52474e-06 1.54412e-08
-6.49397e-08 2.32195e-05 -5.35723e-05
-3.28024e-05 -2.27717e-05 -1.20062e-07
2.83306e-06 1.86344e-06 1.23469e-08
2.38694e-06 1.26738e-10 4.88081e-06
3.4515e-06 2.29021e-06 1.3981e-08
1.85339e-06 -2.53664e-09 -6.03381e-06
1.85276e-06 2.64377e-06 9.16168e-09
2.23739e-07 4.83913e-10 1.72998e-05
6.01969e-07 -3.92601e-07 -4.17947e-10
6.50348e-07 1.59515e-06 3.13337e-09
1.16053e-06 1.2137e-06 2.79767e-09
6.83348e-07 -3.80808e-07 1.79266e-09
4.94478e-07 -1.3511e-06 2.95532e-09
-3.5133e-10 -1.82041e-07 1.05906e-06
-2.23065e-06 -9.98825e-07 -3.33971e-09
-1.15107e-07 -1.6544e-05 1.35122e-05
-5.01487e-06 8.12321e-07 -5.99351e-08
-4.511e-07 -2.50687e-10 3.29691e-05
2.57012e-06 2.08037e-06 9.666e-09
-7.19207e-11 -2.47985e-07 6.84214e-06
5.89996e-06 8.23875e-07 1.87942e-08
7.35184e-10 -7.46994e-07 1.06639e-06
1.35272e-06 2.46007e-06 6.02673e-09
-8.00896e-07 3.75657e-11 5.1896e-06
9.35682e-07 1.49049e-06 3.57226e-09
8.47781e-07 -3.47645e-10 -1.25166e-05
-1.49358e-07 -2.22818e-07 -4.84388e-10
1.15142e-06 1.03862e-06 2.57166e-09
3.46956e-06 -1.12642e-06 9.16516e-09
-1.48547e-06 -8.15022e-07 3.27924e-10
-5.3641e-07 4.27029e-07 -1.63425e-09
-5.45787e-10 1.40254e-05 7.69064e-06
-1.46179e-05 -1.11917e-05 -8.32881e-08
-2.11427e-06 2.07973e-10 -4.01249e-05
-1.03846e-09 -1.90324e-06 -3.61756e-05
-1.14079e-09 -1.34416e-06 -1.72964e-05
1.39295e-06 1.2304e-06 6.64209e-09
-5.05045e-10 1.64784e-06 -8.7574e-06
-6.92649e-07 1.5213e-06 9.12452e-10
4.21826e-10 -7.22407e-07 -2.69107e-06
9.24381e-07 7.67612e-07 2.35533e-09
3.86668e-07 1.93312e-07 3.79875e-10
4.85598e-07 -1.67845e-07 2.70869e-10
5.75141e-07 -5.43067e-07 9.01913e-10
-4.28323e-11 1.28148e-06 -4.96092e-06
4.18834e-07 -4.42645e-08 1.19474e-09
-1.56481e-07 -1.32003e-06 2.55644e-09
1.3172e-07 -2.34224e-06 7.35117e-09
-6.62031e-08 7.58639e-06 4.03369e-07
-1.4862e-05 -5.43549e-06 -8.66617e-08
4.23256e-07 3.12947e-06 1.34409e-08
1.78289e-06 2.78953e-06 1.34344e-08
1.2795e-06 1.33187e-06 5.03808e-09
-2.3858e-07 2.52014e-07 1.91334e-10
5.21861e-08 -7.06268e-07 2.91963e-10
1.03546e-06 -3.55752e-07 3.71692e-10
1.46172e-06 -1.90136e-06 7.29022e-09
-2.2236e-06 -3.2829e-06 1.48052e-08
-1.6782e-06 -3.71818e-06 1.65411e-08
3.97557e-09 -1.17487e-06 -7.40602e-06
-2.27438e-05 -9.54685e-06 -1.17047e-07
-9.84063e-10 -2.52431e-06 -2.28631e-05
-1.91143e-07 1.56314e-06 4.377e-09
2.46144e-06 1.58241e-06 1.01387e-08
2.20868e-07 1.34843e-06 3.08126e-09
-1.64304e-07 4.21796e-07 4.91942e-10
-1.29068e-06 1.61071e-07 1.99692e-09
-1.34221e-06 -1.02136e-06 2.09187e-09
1.07867e-07 -1.47129e-06 2.8682e-09
-1.27254e-06 -2.14244e-08 2.95131e-09
-9.1983e-07 -9.37036e-10 -6.63169e-06
-2.11011e-06 -2.95543e-06 8.96981e-09
-1.60893e-08 -1.42557e-06 3.11915e-06
-2.7869e-05 -8.76305e-06 -2.7176e-07
-4.87089e-10 -2.27389e-06 -1.46421e-05
-5.75135e-07 3.22095e-06 1.37493e-08
1.76249e-06 1.92941e-06 1.13629e-08
-2.33651e-06 2.33578e-06 1.46401e-08
-1.24711e-06 1.34365e-06 5.74423e-09
-2.61085e-06 -6.36335e-07 7.27572e-09
-1.59555e-06 -4.34211e-07 2.53002e-09
-8.81694e-07 8.17892e-07 -1.66285e-09
3.75804e-06 -1.06563e-08 1.49033e-05
-1.87845e-06 -3.34258e-06 1.26806e-08
-2.81806e-06 -1.98538e-06 1.47738e-08
-1.20967e-05 -5.83108e-06 -6.01566e-08
-1.78336e-10 -1.01237e-06 3.72857e-05
-1.88039e-06 1.4287e-06 1.30165e-08
-3.34596e-06 -1.92563e-07 1.00639e-08
-3.25703e-06 7.94367e-07 1.54036e-08
-2.29776e-06 -1.33541e-06 5.66714e-09
-4.193e-06 -3.03484e-06 1.45045e-08
-1.12301e-06 -1.24445e-06 4.24193e-09
-8.60854e-07 -2.12958e-06 4.35359e-09
-9.5998e-10 5.27378e-06 -2.47398e-06
4.89207e-06 -5.32823e-09 4.56135e-06
-3.26252e-06 -2.13798e-06 1.38388e-08
-2.04884e-06 -3.07213e-06 1.10688e-08
-1.2295e-05 -9.51765e-06 3.18281e-08
-2.45882e-09 4.50291e-11 -2.18234e-05
-8.22795e-06 -1.67334e-05 -8.5248e-08
8.21122e-06 4.90892e-08 1.47146e-05
-3.91499e-06 3.42584e-06 6.25215e-08
3.48893e-06 -2.54065e-09 -1.02242e-05
-5.94461e-06 -2.15793e-05 -1.72177e-07
1.95119e-06 -1.17959e-09 -4.35225e-06
-1.15513e-05 -2.3075e-05 -1.65926e-07
2.79918e-07 -1.30422e-09 6.87603e-09
5.70429e-06 -9.52158e-06 -1.64018e-07
-3.10661e-06 7.54598e-09 4.00728e-06
-1.19393e-05 -3.25171e-05 -1.91304e-07
1.42769e-06 7.73469e-09 2.04661e-06
-4.19319e-06 -1.25643e-05 -8.82838e-08
-4.90408e-06 1.36168e-08 -4.90404e-06
-1.29827e-05 -2.18353e-05 -9.73976e-08
-4.75115e-06 -1.05681e-05 -2.66274e-08
-6.04373e-06 -5.40779e-06 9.20966e-08
2.05971e-06 -1.04823e-09 -3.83573e-05
-4.9476e-06 -3.35912e-06 -5.49453e-08
-4.75985e-06 -2.07225e-06 -3.95816e-08
-3.16484e-06 -2.53832e-06 -2.49107e-08
-1.80204e-06 -1.15998e-06 -1.12303e-08
-3.26424e-06 -1.49598e-06 -2.16003e-08
-3.873e-06 1.62693e-06 -2.5559e-08
-4.34416e-06 1.34236e-06 -3.04624e-08
-4.68263e-06 3.11198e-06 -4.48523e-08
-1.85139e-06 5.32294e-06 -5.16418e-08
1.69735e-05 9.84451e-06 4.57679e-07
-5.15256e-06 -1.14024e-06 -3.93924e-08
-2.5733e-06 -1.32691e-06 -1.9078e-08
-2.52592e-06 -2.32206e-06 -1.71595e-08
-1.23022e-06 -2.59614e-06 -1.14207e-08
-5.12941e-07 -1.15062e-06 -2.81513e-09
-2.75554e-06 -1.12445e-06 -1.07665e-08
-2.40007e-06 -6.87415e-07 -9.44536e-09
-1.84835e-06 1.42242e-10 9.12745e-06
-2.68426e-06 1.65271e-06 -1.46269e-08
2.12623e-07 3.91978e-06 -1.82124e-08
1.44764e-06 -1.12141e-06 5.90879e-08
3.16258e-09 -1.61753e-08 4.90699e-06
-4.55895e-06 -1.73382e-06 -3.19421e-08
-2.84289e-06 -9.92516e-07 -1.30767e-08
-1.52924e-06 -1.35256e-06 -6.32182e-09
-1.26649e-06 -1.15876e-06 -4.31337e-09
-7.96303e-07 1.51286e-06 -3.86891e-09
-1.71333e-07 1.4857e-06 -3.50983e-09
-4.28712e-07 2.0484e-06 -6.5029e-09
-2.46651e-06 1.65309e-06 -1.29331e-08
-1.13787e-07 2.09354e-06 -8.59656e-09
-3.45504e-06 7.91849e-06 -1.76321e-07
3.17365e-08 4.89017e-06 1.50101e-05
-3.77441e-06 -2.90258e-06 -2.50043e-08
-1.77273e-06 -1.29293e-06 -6.49456e-09
2.87925e-06 -4.79444e-09 -2.13382e-05
-1.31295e-06 -2.11719e-06 -8.88793e-09
-1.16551e-06 -2.21983e-06 -7.02085e-09
1.36878e-06 -9.01129e-07 -3.74185e-09
-3.66315e-07 9.55873e-07 -1.43088e-09
-9.16764e-07 2.22089e-06 -6.63908e-09
-1.64608e-06 2.50006e-07 -6.3625e-09
5.93349e-07 7.16091e-07 -4.7628e-10
-2.49491e-06 9.91417e-06 -1.39618e-07
-2.02713e-09 -1.19194e-06 -6.22411e-06
-2.57051e-06 -3.12559e-06 -2.64468e-08
-6.78154e-09 -2.69046e-06 1.00315e-05
-1.47298e-06 -2.5965e-06 -9.80656e-09
-2.56256e-06 -2.03197e-06 -9.93341e-09
-1.36746e-06 -1.16981e-06 -4.54926e-09
-7.54221e-09 3.64118e-06 -1.08563e-05
1.16457e-06 7.02786e-07 -2.28297e-09
-5.44e-09 1.86304e-06 -3.92774e-09
-7.68673e-07 1.98134e-06 -5.75953e-09
-2.51921e-06 9.82351e-07 -1.06093e-08
3.92971e-07 3.16405e-06 -1.30604e-08
-2.50712e-06 3.66848e-06 -1.26528e-07
-3.25129e-08 2.28654e-06 -1.3351e-06
-1.0333e-07 -1.52431e-10 4.71674e-05
-3.62264e-06 -2.11471e-06 -2.18128e-08
-9.3767e-07 -2.29576e-06 -9.70052e-09
-1.79377e-06 -1.05151e-06 -6.70775e-09
-2.39178e-06 -6.97824e-07 -8.10484e-09
1.6321e-10 2.6876e-07 1.11143e-05
1.60403e-06 -1.07076e-06 -5.85189e-09
9.63951e-07 1.32672e-06 -4.95393e-09
1.58422e-06 2.5175e-06 -1.16655e-08
1.06649e-06 2.71433e-06 -9.38775e-09
2.34331e-06 3.28066e-06 -1.67138e-08
-3.68292e-06 1.27509e-05 -3.76643e-07
-1.0408e-08 8.32437e-07 -5.43313e-06
-1.50554e-07 3.36378e-11 -4.62122e-05
-2.38941e-06 -3.02685e-06 -2.05307e-08
2.05811e-08 -2.9674e-06 -1.41991e-08
-9.76299e-07 -3.27703e-06 -1.69969e-08
-1.15461e-06 -2.63242e-06 -1.1409e-08
2.56718e-06 -1.22338e-06 -9.40462e-09
9.54013e-07 -7.57284e-07 -1.93412e-09
1.46791e-06 -4.68626e-07 -2.8931e-09
3.941e-07 3.33558e-06 -1.31628e-08
2.111e-06 2.68104e-06 -1.35843e-08
2.21125e-07 3.88514e-06 -3.71901e-09
-6.47016e-07 -2.4023e-05 -4.16443e-05
-4.59552e-10 -7.62519e-07 1.92053e-05
-2.68131e-06 -4.12124e-06 -2.89456e-08
5.7055e-07 -2.62605e-06 -1.49888e-08
-1.83387e-06 -3.55122e-09 -1.32752e-05
-2.73741e-07 -3.4476e-06 -1.88282e-08
-1.90781e-07 -4.05473e-06 -2.45973e-08
3.53334e-06 -1.71853e-06 -2.13936e-08
1.59189e-06 -2.07358e-06 -9.12976e-09
1.28395e-06 2.94192e-06 -1.32692e-08
-1.88212e-08 4.71278e-06 6.17516e-06
2.68233e-06 2.6289e-06 -1.86042e-08
2.55199e-06 4.34015e-06 -3.50777e-08
-2.34195e-06 1.11577e-05 -2.59537e-07
-8.71165e-10 -1.92744e-06 3.31943e-05
-6.76602e-07 -6.31935e-06 -6.88427e-08
2.18427e-06 -4.69423e-06 -4.97679e-08
1.28214e-06 -5.39784e-06 -5.20059e-08
-3.13895e-07 -5.13459e-06 -4.42761e-08
5.39137e-06 -3.74991e-07 -3.72769e-08
1.83742e-06 -1.97744e-06 -1.45666e-08
9.61451e-07 -1.67757e-06 -9.05401e-09
3.57377e-06 -1.94955e-06 -2.3641e-08
3.93029e-06 -2.90112e-07 -2.03993e-08
-9.95976e-06 -5.13535e-09 9.00472e-06
-1.3499e-06 1.20239e-05 -2.46229e-07
-3.9627e-10 -2.213e-06 -2.36898e-05
8.83893e-06 3.93805e-06 2.90829e-08
8.95317e-06 1.39369e-05 3.67367e-07
2.01047e-06 1.33249e-08 5.49323e-06
2.83157e-06 -4.57115e-06 -1.78788e-07
7.06457e-07 3.50901e-09 1.36119e-05
8.76007e-06 -5.08786e-06 -2.18955e-07
-1.35188e-06 -1.76582e-10 -1.27507e-05
6.83735e-06 3.82513e-06 -3.04581e-09
-2.19975e-06 4.18276e-08 4.27097e-06
9.6071e-06 8.01741e-06 1.252e-07
-5.73126e-07 -1.18224e-09 2.2035e-06
9.60448e-06 -5.42627e-06 -3.31114e-07
1.25317e-05 -3.40859e-06 -2.71684e-07
-2.46275e-05 -1.10578e-08 -9.81654e-05
4.77003e-06 2.93515e-06 1.01457e-08
7.62621e-06 7.81995e-06 -1.58348e-07
-6.43022e-09 -2.91171e-06 -1.36985e-05
-1.16367e-06 -4.87537e-10 -3.76481e-05
9.1502e-07 5.27047e-06 5.28529e-08
1.07555e-06 4.91684e-06 4.60726e-08
2.22801e-07 4.65029e-06 3.75452e-08
9.5358e-07 5.18533e-06 4.33887e-08
2.37428e-06 5.20956e-06 4.91262e-08
1.67373e-06 3.10159e-06 2.46044e-08
2.68134e-06 2.93625e-06 2.84609e-08
3.0718e-06 1.57094e-06 2.55633e-08
5.41932e-06 -8.03385e-07 5.87021e-08
-8.91933e-06 -5.71476e-06 -7.84301e-07
1.18877e-07 3.8156e-06 3.03122e-08
-1.38971e-06 3.81454e-06 2.411e-08
1.03971e-07 2.14614e-06 1.02817e-08
1.07902e-06 1.47623e-06 5.86777e-09
1.48242e-06 6.94204e-07 4.52177e-09
5.14531e-07 -8.1428e-07 9.39589e-10
1.43789e-06 -3.80118e-07 4.50692e-09
8.72388e-07 -2.0757e-06 7.81003e-09
8.30355e-07 -6.39755e-07 4.89025e-09
-5.07908e-07 -3.20415e-07 -3.59414e-08
-4.34688e-07 3.08722e-06 2.10339e-08
1.61362e-06 -7.863e-07 4.45588e-09
1.02207e-06 -1.25866e-06 4.65861e-09
-8.61566e-08 1.32749e-05 5.57695e-06
1.14104e-06 -2.29707e-06 9.64631e-09
8.58335e-07 -5.22904e-07 1.59049e-09
-3.2146e-07 2.18326e-07 4.72479e-11
3.74673e-07 9.91068e-07 1.61362e-09
5.24755e-07 2.48157e-07 2.02267e-09
-4.75396e-09 -1.42195e-06 -1.26677e-05
1.04579e-06 -1.15341e-06 7.64411e-09
1.08652e-05 -4.91239e-06 6.12385e-07
-5.69498e-07 -1.93698e-10 -3.60341e-05
-7.08857e-07 2.20202e-06 1.12705e-08
-2.27411e-06 1.01902e-06 1.13915e-08
-5.73008e-07 1.21021e-06 2.88054e-09
6.91695e-07 8.96398e-07 2.02917e-09
6.90207e-07 -9.62518e-08 6.85099e-10
2.51271e-06 -7.57546e-09 -9.212e-06
-9.08635e-08 5.83363e-07 4.61764e-10
2.71997e-07 1.2722e-06 2.18363e-09
2.03854e-06 1.69543e-06 9.07889e-09
2.07882e-08 -1.45337e-06 5.01175e-09
1.73763e-05 -2.92687e-06 9.12989e-07
-1.10487e-06 3.34585e-06 2.26234e-08
-1.9575e-06 1.16545e-06 1.01845e-08
-1.13558e-06 1.66879e-06 6.83809e-09
1.10664e-06 8.60821e-07 2.87347e-09
-5.15171e-08 8.67812e-07 1.23188e-09
-3.92773e-07 -4.36941e-09 3.77415e-11
-1.72475e-06 -1.02744e-06 5.42986e-09
6.43654e-07 -9.31593e-07 2.51204e-09
-1.18151e-06 -4.0435e-07 -8.94073e-10
1.46124e-05 -2.99252e-07 7.50343e-07
-5.12449e-08 1.18186e-06 -0.000189257
-5.1171e-08 1.39437e-06 4.24529e-09
-2.99166e-06 1.37518e-07 1.26243e-08
2.25339e-08 8.35979e-06 -1.77984e-05
-2.0071e-06 1.53248e-07 5.16637e-09
8.42712e-07 1.79556e-06 7.00357e-09
2.80221e-08 2.83146e-06 1.07505e-08
-2.17034e-06 1.276e-06 6.39937e-09
-3.45659e-06 4.43994e-08 1.68081e-08
9.96691e-07 1.0989e-06 4.71581e-09
1.86755e-07 -9.82745e-07 3.03822e-09
1.65734e-05 -1.09927e-05 9.16158e-07
-1.77409e-07 -5.51868e-12 -4.56128e-05
-1.5836e-06 2.28381e-06 1.45189e-08
-2.88156e-06 1.4028e-06 1.58653e-08
-1.16233e-06 1.08214e-06 5.08813e-09
-1.03411e-06 2.07557e-06 9.49036e-09
1.16708e-08 1.36659e-06 4.46842e-09
-1.19677e-06 1.07963e-07 2.28077e-09
-2.67686e-06 -9.13849e-08 9.46933e-09
-1.8414e-09 -5.42191e-07 5.4776e-06
2.04564e-06 -2.05467e-06 1.21911e-08
1.45769e-06 -2.78634e-06 1.77969e-08
1.93189e-05 2.47762e-06 9.08939e-07
-6.66714e-11 1.68886e-08 -4.2766e-05
-5.21255e-07 3.61048e-11 3.61418e-05
-1.09318e-06 9.6695e-07 5.91775e-09
-2.41413e-06 2.10895e-06 1.73315e-08
6.62282e-07 1.95129e-06 8.59056e-09
-1.19648e-06 1.61036e-06 8.15489e-09
-2.43252e-07 2.6564e-06 1.4489e-08
-9.66035e-07 2.19965e-06 9.0315e-09
-2.36359e-06 2.17677e-07 8.39734e-09
-2.20908e-08 6.5175e-06 3.34565e-06
1.36545e-06 -2.88661e-06 1.86273e-08
-4.23383e-07 -3.22789e-06 1.97344e-08
6.73059e-06 -4.75977e-06 3.19442e-07
-1.73662e-06 3.62555e-06 3.73771e-08
-1.95153e-06 2.71786e-06 2.60819e-08
1.80676e-06 3.51209e-06 3.1804e-08
-9.0703e-07 3.59623e-06 2.74859e-08
-5.67725e-07 2.29478e-06 1.86866e-08
-1.82278e-06 1.23111e-06 1.14328e-08
-1.32668e-06 2.4897e-07 5.55374e-09
1.01988e-07 -8.90022e-07 -2.08334e-09
-1.55457e-06 -4.76534e-07 -4.9697e-10
4.80337e-06 -7.63764e-06 2.65217e-07
-5.9945e-06 -6.3317e-06 -5.48388e-07
-5.39241e-06 1.6984e-06 1.71602e-07
1.38977e-06 1.20106e-05 6.28503e-07
-2.49964e-06 1.33419e-05 6.91563e-07
-6.24385e-06 1.63344e-05 8.89161e-07
-3.97864e-06 1.88811e-05 9.33117e-07
-8.98917e-06 6.7845e-06 4.53699e-07
-6.95044e-06 8.38276e-06 4.00836e-07
-1.98882e-06 2.28977e-06 7.85242e-08
-6.96648e-06 -6.95988e-06 6.30027e-08
1.29127e-09 -2.00925e-06 -5.58562e-05
-4.27271e-06 2.15257e-09 2.18144e-05
-7.28969e-07 -1.07438e-06 -5.53046e-09
1.69155e-08 -6.92434e-07 -2.59155e-09
-3.33472e-07 -2.71956e-07 -5.59837e-10
-3.72708e-07 -7.27448e-07 -2.51345e-09
-1.05968e-06 -7.66107e-07 -3.5988e-09
-3.97767e-07 -5.50443e-07 -1.98841e-09
-6.84093e-07 -2.59019e-07 -2.07337e-09
4.38667e-07 4.75698e-07 1.06949e-09
-2.87013e-06 -3.49914e-07 -2.26336e-08
-1.65096e-05 1.43316e-06 -2.48481e-06
1.23279e-06 -2.25329e-06 -1.37923e-08
1.29318e-06 -2.46802e-06 -1.09448e-08
-1.34411e-07 -8.60088e-08 -2.178e-10
-1.32846e-06 4.3026e-07 -3.46969e-09
-1.49645e-06 1.41835e-07 -3.82746e-09
3.72531e-07 -5.42371e-07 -7.83409e-10
-3.75217e-07 4.13852e-07 -9.38319e-10
-2.24485e-07 -8.3495e-07 -1.75094e-09
-2.14068e-06 -6.46414e-08 -1.67582e-08
-1.36862e-05 4.36168e-07 -1.47226e-06
2.26412e-06 -1.77044e-06 -1.78902e-08
7.01563e-07 -1.28728e-06 -4.58886e-09
4.71507e-07 -9.48091e-07 -2.07776e-09
-3.19414e-07 -6.87633e-07 -9.62282e-10
-3.95229e-07 -1.70597e-06 -4.90676e-09
-1.10484e-06 -1.58535e-06 -5.28894e-09
-7.04299e-07 -1.94821e-06 -6.32704e-09
-7.8888e-07 -6.77958e-07 -2.78273e-09
-3.32695e-06 -8.95942e-07 -2.6958e-08
-1.15387e-05 3.37656e-06 -7.6384e-07
2.14408e-06 -9.50819e-07 -1.126e-08
-3.45552e-07 2.69692e-08 -2.1544e-10
-7.02186e-07 1.01777e-06 -2.31559e-09
-8.07344e-07 4.25853e-07 -1.63862e-09
-1.80488e-06 6.56214e-09 -5.6996e-09
-8.68135e-07 -1.18267e-06 -3.45235e-09
-5.34391e-07 -1.71293e-06 -4.56596e-09
-6.31977e-07 -5.48079e-07 -1.04689e-09
-3.40221e-06 6.58208e-07 -2.52942e-08
-1.20481e-05 2.42307e-06 -7.29524e-07
2.13087e-06 -1.35052e-06 -1.45519e-08
-3.61124e-07 2.18646e-07 -8.46374e-11
4.50159e-07 7.68577e-07 -9.42862e-10
-7.6992e-08 1.0512e-06 -1.67053e-09
-1.38817e-06 -3.2474e-07 -3.41329e-09
-8.18318e-07 -1.49485e-06 -3.81974e-09
-4.2451e-07 -6.93206e-07 -1.11199e-09
-6.19536e-07 4.28886e-07 -1.33175e-09
-1.79254e-06 -5.79083e-09 -1.11144e-08
-1.34428e-05 1.06028e-06 -7.87356e-07
2.40544e-06 -1.533e-06 -1.57205e-08
3.59921e-07 -8.92486e-07 -3.07041e-09
1.22641e-06 -1.16027e-06 -6.04265e-09
1.56909e-06 -1.01754e-06 -7.70774e-09
-7.94802e-07 -5.2686e-07 -2.54574e-09
4.80933e-07 -1.09431e-06 -2.66452e-09
-9.67827e-08 -4.64003e-07 -7.64202e-10
-1.34164e-06 9.47191e-08 -6.03316e-09
3.38481e-10 1.82597e-06 4.39166e-06
-3.15597e-06 8.82724e-07 -3.01229e-08
-1.18233e-05 1.13248e-06 -6.66741e-07
-4.76502e-11 7.56033e-07 1.83468e-05
2.25404e-06 -9.65286e-08 -9.86131e-09
7.47903e-07 -6.65242e-07 -2.43321e-09
4.89397e-07 -1.36193e-08 -7.0911e-10
1.92392e-06 3.11519e-07 -7.33721e-09
-1.07966e-06 1.53322e-07 -2.13921e-09
2.33776e-07 1.48203e-06 -2.98549e-09
7.26659e-08 1.93256e-06 -6.89826e-09
-6.49927e-07 2.76352e-07 -1.9887e-09
-2.58775e-06 9.77524e-07 -2.01746e-08
-9.39681e-06 -2.52688e-06 -5.05316e-07
2.47294e-06 -7.72744e-07 -1.39597e-08
4.41355e-07 -1.30706e-06 -4.0138e-09
7.7842e-07 -7.61344e-07 -2.60649e-09
-3.8956e-08 -7.65521e-06 8.13516e-06
1.50964e-06 8.74867e-07 -4.78887e-09
-1.76238e-06 -3.44553e-07 -6.00415e-09
9.79846e-07 1.53729e-06 -5.21004e-09
3.02538e-07 1.48802e-07 -3.36196e-10
-4.57449e-07 1.01978e-06 -3.39208e-09
1.24169e-06 8.27703e-07 2.27435e-09
-7.16705e-06 -8.71879e-07 -3.47495e-07
2.68173e-06 -3.78665e-07 -1.58964e-08
1.82921e-06 4.54199e-07 -5.56797e-09
-2.54408e-07 5.84563e-08 -1.65234e-11
1.47832e-06 4.72247e-07 -2.49025e-09
-2.45566e-06 -1.58922e-06 -1.68639e-08
2.72073e-07 1.02689e-06 7.64737e-10
3.35549e-07 3.43662e-06 -2.90728e-09
-1.03259e-06 4.95851e-06 -4.88025e-09
-1.67218e-07 4.19087e-06 -9.81506e-09
-6.34723e-06 1.12372e-06 -2.78317e-07
3.93135e-11 2.73357e-07 4.05198e-05
-1.59896e-06 3.10416e-10 1.76487e-05
1.03791e-06 -1.72346e-05 -2.57627e-06
3.07219e-06 -1.46244e-05 -1.62263e-06
-4.00512e-07 -1.17754e-05 -7.55491e-07
-2.08859e-07 -1.20095e-05 -7.35257e-07
1.29389e-06 -1.18423e-05 -6.82614e-07
-8.77851e-07 -1.25754e-05 -6.93413e-07
2.98338e-06 -7.19667e-06 -3.97418e-07
-3.93167e-07 -7.39286e-06 -3.47025e-07
1.90366e-06 -6.6869e-06 -3.00071e-07
6.69894e-06 6.7085e-06 8.4654e-08
-3.29613e-08 1.41448e-05 2.49325e-05
-4.87022e-06 8.05087e-10 -2.19724e-05
7.62578e-08 -1.09603e-06 -5.29001e-10
-3.9502e-07 -1.41484e-06 3.94253e-10
5.55183e-07 -1.09731e-06 5.23607e-10
-4.0466e-07 -1.48984e-06 9.26743e-10
1.57876e-07 -1.76176e-06 1.66617e-09
-8.87395e-07 -1.06854e-06 1.83155e-09
-4.17646e-07 -1.15377e-06 1.32383e-09
-1.70171e-06 -1.30774e-06 2.72033e-09
-5.26473e-07 4.1148e-07 -9.89164e-10
1.05914e-05 1.58621e-06 1.69842e-06
-6.12695e-07 -7.68759e-07 3.6253e-10
3.50845e-07 3.20762e-09 1.94299e-10
-8.71197e-08 -1.33808e-07 -1.44562e-10
-6.37242e-07 5.51964e-07 1.5905e-09
-1.15231e-06 7.62551e-07 3.7802e-09
-3.82307e-07 1.38433e-06 4.86254e-09
-7.7555e-07 9.62884e-07 2.29451e-09
7.70291e-07 1.22927e-06 5.2686e-09
-8.49575e-08 -5.59858e-08 -3.14671e-10
9.15086e-06 -1.00129e-06 1.05234e-06
-4.26682e-11 1.38618e-06 4.69659e-05
1.57682e-07 -7.36047e-07 -4.40166e-10
-1.58119e-06 1.36234e-06 1.00804e-08
-3.82408e-07 5.7354e-07 1.06851e-09
-2.67718e-07 1.01918e-06 1.71358e-09
-3.0425e-07 -7.23453e-07 1.42706e-09
1.89636e-07 -8.74621e-07 1.91239e-09
-5.57282e-07 -1.23637e-06 2.6283e-09
2.46975e-07 -1.37201e-07 5.64506e-10
7.55006e-07 1.34661e-06 4.72034e-09
6.68781e-06 1.31147e-06 4.39549e-07
7.82438e-08 -1.10949e-06 1.81899e-10
5.37796e-07 -3.12081e-07 1.0475e-09
5.12662e-07 -7.04487e-07 1.31031e-09
-4.40475e-07 -7.3671e-07 1.01336e-09
-6.98547e-07 -4.62049e-07 1.29663e-09
8.62278e-08 -1.09405e-06 2.60631e-09
-6.52843e-07 -9.66472e-07 1.92941e-09
6.38669e-11 -1.10049e-06 2.74172e-09
1.36221e-06 -1.66701e-07 6.84384e-09
5.7216e-06 1.53778e-06 3.47054e-07
6.6305e-07 3.00469e-12 -4.00499e-05
4.70683e-07 -6.9314e-07 -9.74635e-11
1.13685e-06 -3.67005e-07 2.20459e-09
5.45109e-07 -7.40031e-07 1.00802e-09
-6.30398e-07 -2.4605e-07 6.71898e-10
-2.39708e-07 -7.81978e-07 1.21919e-09
4.55366e-08 -4.71016e-08 1.50275e-11
2.84929e-07 1.45544e-07 1.30235e-10
8.6664e-07 6.5556e-07 3.95148e-09
1.25055e-06 1.17975e-08 7.57038e-09
6.96754e-06 -3.15419e-07 4.13112e-07
-5.14446e-08 -4.83702e-07 -3.24182e-10
9.60463e-07 3.37465e-07 1.53559e-09
1.27867e-06 -8.52824e-08 1.65349e-09
-1.20995e-07 -6.44145e-07 1.19901e-10
-5.44044e-07 -1.27547e-06 1.79059e-09
1.18463e-06 -1.21473e-06 3.34572e-09
1.68134e-06 -3.6528e-08 4.54774e-09
6.1058e-07 -2.28301e-07 1.46884e-09
9.17028e-07 5.90681e-07 5.06896e-09
4.73941e-06 2.89465e-06 2.96455e-07
1.1819e-06 -6.09621e-07 2.14286e-09
8.9495e-07 1.87612e-07 1.08288e-09
7.71332e-07 6.87288e-08 1.01519e-09
5.40679e-07 -9.39765e-07 1.19983e-09
-2.18943e-07 -7.4023e-07 3.87383e-10
8.73405e-07 4.29716e-07 1.73211e-09
1.03456e-06 -2.7133e-07 2.09881e-09
-1.28566e-06 8.05575e-07 1.36344e-09
-3.05771e-07 8.73302e-07 -1.09704e-09
3.17131e-06 -3.50483e-07 1.71526e-07
1.15175e-10 -1.74757e-07 4.40449e-05
4.72614e-07 -4.60314e-08 2.02613e-10
1.30706e-07 3.71146e-08 -1.21046e-10
1.68583e-07 -5.5591e-07 5.44445e-11
6.18662e-07 -9.93658e-08 4.42165e-10
4.20104e-07 -7.08641e-07 1.97492e-10
3.28376e-08 -1.67683e-06 4.99427e-09
1.11784e-06 -1.01596e-06 3.66453e-09
-1.36652e-06 7.41552e-07 2.54565e-09
-2.68555e-06 1.23257e-06 -9.82185e-09
5.94349e-06 1.74504e-06 3.23341e-07
9.92734e-07 -5.287e-08 1.28068e-09
7.27296e-07 -2.15634e-07 -3.62715e-10
-1.18649e-06 -3.77401e-07 1.27628e-09
7.11758e-07 -2.92209e-07 5.99347e-10
1.03024e-06 -2.3592e-08 8.08625e-10
7.66222e-07 7.60564e-10 -8.30146e-06
1.25038e-06 1.05938e-06 8.17507e-09
6.40257e-07 -1.40235e-06 -5.32617e-09
-1.17694e-06 -2.84882e-06 -1.08975e-08
-8.54331e-07 -1.4611e-06 -7.02022e-09
5.65569e-06 3.12164e-06 3.0862e-07
-2.2341e-10 7.47629e-07 -5.01467e-05
1.85048e-06 9.80361e-06 1.55712e-06
9.00814e-07 8.50773e-06 9.83879e-07
-7.41604e-07 6.90462e-06 4.64698e-07
2.51927e-06 6.62976e-06 4.35843e-07
-2.50775e-07 6.20751e-06 3.69495e-07
1.43308e-06 5.39772e-06 3.196e-07
3.41659e-06 5.46845e-06 3.16379e-07
2.93498e-06 5.15898e-06 2.79598e-07
9.13938e-07 6.11011e-06 3.07059e-07
4.94057e-06 4.86957e-06 5.29313e-07
-1.02757e-06 -1.4527e-06 4.74088e-09
-1.11127e-06 -1.15826e-06 3.59989e-09
-6.13959e-07 -8.98503e-07 1.64171e-09
-1.1762e-06 -7.13362e-07 2.30674e-09
-8.55545e-07 -8.1164e-07 1.57263e-09
-1.64553e-06 -1.3527e-07 5.2471e-09
-1.32732e-06 -1.25523e-07 2.794e-09
-1.65942e-06 5.6397e-07 2.99518e-09
-8.28165e-07 1.09074e-06 1.88392e-09
3.79117e-06 2.35559e-06 6.37997e-07
-7.18803e-07 -1.63012e-06 5.43991e-09
8.9073e-08 -1.23149e-06 3.35432e-09
-6.14469e-07 -1.22279e-06 3.44429e-09
-8.75539e-07 -4.70331e-07 2.0966e-09
-8.11554e-07 -2.72353e-07 1.26236e-09
-4.48148e-07 -7.11797e-07 9.82652e-10
-7.39609e-07 -4.0469e-07 1.40493e-09
-7.12948e-07 -3.49572e-07 7.58938e-10
-6.67953e-07 1.03404e-06 -3.3008e-10
3.35686e-06 1.00799e-06 3.97701e-07
-2.24958e-11 2.05305e-06 -4.70132e-05
1.83003e-07 -1.73177e-06 4.2689e-09
-8.20443e-07 -7.37769e-07 2.37108e-09
-9.92239e-08 -1.06813e-06 2.50805e-09
-3.35804e-07 -8.73488e-07 2.72045e-09
-3.99853e-07 -3.55672e-07 8.4694e-10
-5.06581e-07 -2.10552e-07 5.40529e-10
-4.63774e-07 -7.17797e-07 9.38087e-10
-1.03567e-06 -1.52665e-07 1.2976e-09
-4.48226e-07 8.7099e-07 -6.53729e-11
1.9928e-06 2.60863e-06 1.46356e-07
4.58281e-07 -1.61704e-06 3.88739e-09
-1.15012e-06 -5.44421e-07 2.34457e-09
-7.50747e-07 3.13519e-08 1.45042e-09
-8.30616e-07 -2.65235e-07 1.50555e-09
-5.42956e-07 -2.36726e-07 9.86407e-10
-4.29978e-07 -1.64504e-07 3.30649e-10
-4.50431e-07 -1.61463e-07 4.05718e-10
-8.49979e-07 -3.03157e-07 5.07029e-10
-8.06334e-07 1.72958e-08 -1.39764e-09
4.97521e-07 2.36624e-06 4.37716e-08
9.39548e-07 -1.58335e-06 5.39578e-09
-3.67294e-07 -6.77157e-07 1.14115e-09
-2.11568e-07 -2.43623e-07 -6.81867e-11
-6.2173e-07 5.77176e-07 1.90257e-09
-4.10301e-07 2.4484e-08 2.50803e-10
-5.62607e-07 -2.3597e-07 6.34368e-10
2.88055e-07 3.56334e-07 3.11331e-10
-1.00703e-06 2.30723e-07 7.46428e-10
-3.81304e-07 9.59287e-07 5.78367e-10
-1.09689e-07 1.97631e-06 1.2458e-08
4.03803e-07 -1.39175e-06 3.1135e-09
9.70448e-08 -6.0728e-07 9.62861e-10
5.00901e-07 -8.29714e-07 1.81726e-09
1.8081e-07 -9.8667e-07 1.54915e-09
-1.21666e-08 -5.76077e-07 6.86113e-11
6.34628e-07 -2.94248e-07 5.43212e-10
8.28706e-07 2.99419e-07 1.53462e-09
-5.87668e-07 1.03326e-06 2.80068e-09
-7.99527e-07 1.58339e-06 2.72608e-09
-2.51746e-07 4.07986e-06 4.35768e-08
1.14156e-06 -7.49042e-07 3.34358e-09
1.08925e-06 -7.88313e-07 2.55232e-09
3.2602e-08 -9.97667e-07 1.70398e-09
1.01402e-06 -5.86453e-07 2.36138e-09
1.86492e-07 -1.87684e-07 -1.02862e-10
4.42912e-07 4.52854e-07 7.4778e-10
5.66306e-07 8.84987e-07 2.6611e-09
-1.36235e-07 1.05332e-06 1.73535e-09
-2.65162e-06 1.82569e-06 -9.98513e-10
-1.90457e-07 -3.4249e-07 -1.17345e-08
-3.95723e-08 2.88159e-11 4.86533e-05
6.52403e-07 -1.32536e-06 2.91604e-09
3.11688e-07 -8.63826e-07 1.29487e-09
3.42616e-08 -1.14332e-06 2.10819e-09
9.84019e-07 -5.11297e-07 2.34553e-09
-2.26051e-07 -8.90008e-07 5.97948e-10
8.99722e-07 -1.25094e-07 1.43348e-09
7.13671e-07 7.71561e-07 2.7724e-09
-4.14974e-07 8.10635e-07 2.31898e-09
-2.50906e-06 1.45627e-06 -1.46451e-09
3.0273e-06 2.44101e-06 1.78706e-07
-6.41194e-11 5.31811e-07 4.55549e-05
-1.16342e-07 -6.33936e-11 2.74416e-05
1.57402e-06 -9.49489e-07 4.28682e-09
1.44732e-06 -4.72735e-07 2.44277e-09
-3.5498e-07 -6.13499e-07 -1.07603e-09
1.17494e-06 -4.52366e-07 3.05311e-09
6.57132e-07 -6.55771e-07 -4.58975e-10
8.48985e-07 5.67297e-07 5.01966e-09
3.91672e-07 -1.11049e-06 -6.10658e-09
-1.65654e-06 2.74634e-06 1.55422e-08
-1.63086e-07 1.22864e-06 6.45825e-09
3.411e-06 3.61293e-06 2.30327e-07
-1.93913e-10 -1.60701e-06 5.00483e-05
2.3588e-06 2.76225e-06 4.68637e-07
2.98585e-06 2.17139e-06 2.8038e-07
1.07653e-06 1.68977e-06 1.16328e-07
1.86227e-06 1.19377e-06 8.92555e-08
1.97792e-06 4.52733e-07 3.6853e-08
1.86634e-06 -4.05121e-07 -2.63233e-09
4.72848e-06 2.41329e-06 1.89944e-07
3.4731e-06 2.37e-06 1.57208e-07
2.73874e-06 3.87469e-06 2.24999e-07
9.24688e-06 9.10718e-06 1.81543e-06
1.45422e-08 1.07549e-05 5.68449e-05
-1.96619e-07 2.67056e-11 -3.12861e-05
1.25895e-06 1.58718e-06 -1.08651e-08
1.18015e-06 1.17075e-06 -7.63076e-09
7.76702e-07 1.12847e-06 -4.77349e-09
1.19532e-06 7.58062e-07 -4.54695e-09
1.21522e-06 7.13092e-07 -4.73487e-09
1.28951e-06 -4.81436e-08 -4.75602e-09
1.50001e-06 3.59993e-09 -6.11678e-09
1.35535e-06 -9.99407e-07 -6.63363e-09
1.14308e-06 -1.23126e-06 -5.5111e-09
1.33487e-06 -1.49756e-06 1.81144e-07
7.75111e-07 1.39732e-06 -6.58016e-09
4.71162e-07 1.09091e-06 -4.5308e-09
6.30217e-07 1.09294e-06 -4.74681e-09
5.04082e-07 8.58327e-07 -2.87643e-09
3.14911e-07 6.29347e-07 -1.30327e-09
6.4231e-07 6.56436e-07 -1.91011e-09
6.1646e-07 2.62847e-07 -1.14219e-09
8.44255e-07 -1.1948e-07 -1.18962e-09
8.02943e-07 -1.19986e-06 -1.93453e-09
1.15821e-06 -1.71346e-06 1.13887e-07
-5.92779e-11 -7.36376e-07 -4.87952e-05
5.03818e-07 1.61062e-06 -6.98931e-09
3.71571e-07 9.19471e-07 -2.49412e-09
5.91267e-07 4.76724e-07 -1.81557e-09
3.60682e-07 1.24422e-07 -6.68202e-10
3.52981e-07 -3.64121e-07 -5.23971e-10
2.51007e-07 -2.13212e-07 -3.06389e-10
2.09617e-07 -9.93082e-08 -3.40004e-10
7.38986e-07 -2.1821e-07 -9.39712e-10
2.80307e-07 -6.09189e-07 -4.76226e-10
1.50388e-06 -2.15041e-06 6.80629e-08
2.12548e-07 1.22915e-06 -3.49185e-09
6.18392e-07 7.90853e-07 -2.53114e-09
4.11312e-07 5.6701e-07 -1.37012e-09
5.06333e-07 1.99551e-07 -8.71192e-10
-2.91604e-07 -5.27411e-08 -1.1097e-11
2.72656e-07 -2.09559e-07 -2.43669e-10
3.86406e-07 -3.09017e-07 -4.63788e-10
7.22623e-07 -5.28153e-08 -6.13986e-10
6.61357e-07 -4.31749e-07 8.96675e-10
2.47406e-06 -1.73547e-06 1.16582e-07
-2.3592e-07 1.38054e-06 -4.91309e-09
5.67231e-08 6.55549e-07 -1.09974e-09
2.07854e-07 6.46263e-07 -1.06733e-09
4.03715e-07 2.46096e-07 -5.09277e-10
-6.39413e-08 -2.77779e-07 -3.09434e-10
-3.04243e-10 -7.27838e-08 -6.6171e-11
-2.6413e-07 -4.60958e-07 -7.47266e-10
8.2317e-07 -1.52253e-07 -7.54242e-10
4.01537e-07 -8.70037e-07 -9.38727e-10
3.5496e-06 -1.86944e-06 1.57282e-07
-2.8726e-06 -3.61554e-09 -1.81334e-05
1.46338e-07 1.28355e-06 -3.85901e-09
-4.18214e-08 8.3656e-07 -2.09332e-09
7.80476e-08 3.65144e-07 -6.26883e-10
3.14259e-07 7.00548e-07 -1.16272e-09
-2.44763e-07 2.75278e-07 -2.5482e-10
-6.83376e-08 -2.91087e-07 -5.38586e-10
-3.54124e-07 -3.95491e-07 -1.22341e-09
4.01693e-07 -7.82919e-07 -2.20664e-09
3.95681e-07 -1.44818e-06 -4.73831e-09
2.37651e-06 -3.19674e-06 5.87536e-08
2.15425e-07 -1.08889e-11 4.46214e-05
-1.71003e-07 1.05781e-06 -2.4649e-09
-2.0049e-07 9.40107e-07 -2.168e-09
-1.26825e-07 9.09703e-07 -2.20825e-09
-3.95611e-07 5.21903e-07 -7.93246e-10
-4.66806e-07 3.7808e-07 -9.61343e-10
-3.30854e-07 4.77512e-08 -2.75186e-10
-3.58173e-07 -7.78594e-07 -2.57032e-09
-3.2877e-07 -8.2609e-07 -3.07968e-09
1.212e-06 -1.23133e-06 -1.5508e-09
1.75454e-06 -6.7994e-07 8.55672e-08
-3.54925e-07 2.04419e-10 -4.14092e-05
-2.83645e-07 1.39704e-06 -4.55405e-09
-5.42858e-07 1.02547e-06 -3.09675e-09
1.68473e-07 1.13151e-06 -3.40077e-09
-1.79271e-08 -5.13872e-06 -4.81005e-06
-5.51702e-07 1.08231e-06 -3.83014e-09
-3.96007e-07 1.097e-06 -2.85419e-09
-9.16006e-07 -6.34964e-08 -2.18585e-09
-4.67535e-07 -1.01301e-06 -4.61074e-09
-3.3623e-07 -5.64199e-07 -3.46244e-09
-1.02214e-05 -2.20815e-06 -7.71695e-08
2.24928e-08 -2.77103e-06 -2.47442e-08
4.92729e-11 -6.51874e-07 4.2333e-05
-7.97016e-07 1.63788e-06 -3.88495e-09
-9.53107e-07 1.16105e-06 -2.47146e-09
-2.75141e-07 1.14614e-06 -8.74282e-10
-4.51935e-07 1.03913e-06 -5.69987e-10
-8.08819e-07 9.24527e-07 -1.83992e-09
-6.42787e-07 1.28192e-06 1.32971e-09
-2.04567e-07 -9.29785e-07 -4.55719e-09
-2.14469e-06 -9.57695e-06 -6.40761e-08
-4.03441e-06 -4.19069e-06 -5.80337e-08
-9.39504e-07 -3.0839e-06 -1.06888e-07
-1.07311e-10 -2.71226e-07 4.82156e-05
8.37956e-07 -1.22704e-11 2.14385e-05
-1.23698e-06 1.35303e-06 1.94341e-07
-2.3037e-06 1.72992e-06 1.67879e-07
-1.3019e-06 1.97394e-06 1.16086e-07