<?xml version="1.0"?>
<VTKFile type="UnstructuredGrid" version="0.1" byte_order="LittleEndian" compressor="vtkZLibDataCompressor">
 <UnstructuredGrid GhostLevel="0">
  <Piece NumberOfPoints="1025" NumberOfCells="1025">
   <PointData>
    <DataArray type="Float64" Name="Elongation" NumberOfComponents="3"/>
7.87059e-06 -9.91406e-06 1.01143e-07
9.26797e-06 -8.23439e-06 1.30436e-07
9.92445e-06 -6.33945e-06 1.28852e-07
6.30264e-06 -8.26733e-06 9.3392e-08
6.31617e-06 -8.6924e-06 1.34063e-07
3.59983e-06 -1.42331e-05 1.67108e-07
3.63906e-06 -1.78212e-05 2.15986e-07
-1.87952e-06 -1.55022e-05 1.83683e-07
-1.7586e-05 -2.61071e-06 -9.59259e-08
0.00028868 7.63855e-05 -7.42075e-05
8.24015e-06 -6.07839e-06 1.03462e-07
9.59206e-06 -3.07387e-06 1.2448e-07
1.31147e-05 -3.69406e-06 1.3452e-07
7.38218e-06 -4.0381e-06 8.74977e-08
1.48278e-06 -3.61451e-09 -1.70611e-05
4.70203e-06 -5.01895e-06 4.47977e-08
4.07878e-06 -4.9069e-06 4.86133e-08
3.14024e-06 -7.0258e-06 7.1877e-08
-7.57197e-07 -1.18827e-05 1.03716e-07
-2.37235e-05 -7.15712e-06 -9.54193e-08
2.24294e-06 0.000332709 0.00198033
-6.00053e-05 2.99558e-05 9.51394e-06
8.3605e-06 -3.81045e-07 9.21478e-08
6.57957e-06 7.05418e-06 1.06135e-07
-7.89338e-06 1.90805e-08 -2.03959e-05
2.4805e-05 2.64306e-06 1.76254e-07
-1.59626e-05 3.22161e-08 1.83568e-06
2.87213e-06 4.64449e-06 4.80759e-08
1.32678e-07 3.0435e-07 9.4575e-10
-2.79546e-07 -3.25503e-06 -2.20071e-09
1.29791e-06 -8.22479e-06 3.32458e-08
-5.1024e-06 -1.8634e-05 7.14687e-08
-9.72707e-08 -4.23791e-05 0.000221872
-2.7038e-05 -3.55328e-05 1.7099e-07
1.04507e-05 6.95984e-05 -1.7776e-05
8.36639e-06 1.87698e-06 9.3556e-08
1.29007e-05 3.94806e-06 1.37129e-07
-1.75705e-09 6.94218e-07 2.35797e-05
1.50166e-06 9.34858e-07 1.68336e-08
2.74123e-06 2.68045e-06 2.72493e-08
-2.82712e-06 3.28837e-06 1.66402e-08
-3.26738e-07 -5.17957e-06 -6.05033e-09
1.29405e-06 -1.11116e-05 3.19565e-08
-7.7688e-06 -8.58581e-06 1.70548e-09
-2.63742e-05 -5.57333e-06 -1.89289e-07
-3.4836e-06 6.20035e-07 7.1275e-07
3.51657e-06 3.81257e-06 7.52812e-08
1.03983e-08 3.66536e-06 -7.07732e-06
3.90296e-06 6.38373e-06 9.51188e-08
2.5188e-06 1.61816e-06 2.79688e-08
1.9272e-06 1.53108e-07 8.24509e-09
4.2128e-07 -1.02471e-06 4.77111e-10
1.90918e-08 -1.25222e-06 1.904e-09
4.02145e-06 -2.68884e-06 3.29947e-08
-7.63681e-08 -5.84827e-06 4.20752e-08
-2.14292e-05 -1.4992e-05 7.88819e-08
-3.85788e-06 -6.05194e-06 2.62801e-06
-5.77715e-07 6.27858e-06 7.81571e-08
1.90626e-05 4.21805e-06 1.88679e-07
9.92117e-06 3.30668e-06 1.00417e-07
9.22666e-07 -1.65367e-07 1.90822e-09
4.91442e-07 -1.36822e-05 -2.67038e-08
-1.79159e-06 1.93456e-05 -3.12375e-08
3.73219e-06 -5.11398e-07 9.28282e-09
-7.54293e-06 -3.94652e-06 2.09813e-08
-1.62198e-05 -1.10396e-05 1.73952e-07
1.79675e-06 -2.05974e-09 -5.87543e-05
6.6818e-06 3.49744e-06 4.33175e-08
1.74267e-05 5.91237e-06 1.93408e-07
7.22665e-06 1.40854e-06 6.58966e-08
-1.01915e-06 1.3049e-06 7.3022e-09
-3.3294e-06 -2.32054e-06 7.3679e-09
-3.88104e-06 -6.08942e-06 3.89456e-08
1.09965e-06 -7.89695e-06 6.25813e-08
-9.06635e-06 -6.42386e-06 1.04719e-07
-2.76044e-05 -5.06486e-06 1.18857e-07
-1.28015e-05 -9.48605e-06 6.0478e-06
2.29913e-06 -1.20091e-09 5.25737e-05
4.00354e-06 6.79205e-06 9.57773e-08
8.64735e-06 5.60906e-06 1.40173e-07
-8.45493e-06 4.47786e-06 8.70845e-08
-1.37334e-05 3.31185e-06 1.38119e-07
-5.75892e-06 -3.98322e-06 1.94705e-08
2.11321e-06 -6.05208e-06 -3.47579e-08
2.41723e-07 -7.3926e-06 4.75755e-08
-7.48058e-06 -1.24207e-06 5.69162e-08
-1.77213e-05 2.08819e-06 1.99876e-07
-8.1272e-05 1.20479e-05 1.81599e-05
4.74429e-06 -3.18852e-09 4.6587e-05
-1.94149e-08 -9.17128e-06 1.68161e-05
-8.45928e-06 -1.53535e-05 -1.9079e-07
-3.94451e-06 -1.09463e-05 -1.62111e-07
-1.4793e-05 -7.36149e-06 6.08067e-10
-2.69658e-05 -1.33849e-05 1.03783e-07
-3.27333e-06 -1.44012e-05 -1.18782e-07
1.09556e-05 -2.04535e-05 -3.29869e-07
2.27622e-05 -2.55541e-05 -3.56442e-07
-1.42373e-05 2.82594e-05 3.43384e-07
1.64655e-05 -1.06651e-06 0.00030567
5.05072e-06 1.32788e-07 -2.38695e-07
-6.54882e-07 -0.000180592 -0.00262163
-0.000275311 -0.000808909 0.000283932
-2.55946e-05 -2.25094e-05 8.66275e-06
-1.02166e-05 -5.46871e-06 3.50862e-06
1.82656e-05 -0.000130803 3.57471e-05
2.3516e-05 -6.71001e-05 1.41435e-05
-0.000487186 0.000632985 -6.61733e-05
-9.16682e-06 -1.13706e-05 6.10925e-06
8.7801e-05 -0.00027472 8.8726e-05
1.19212e-05 2.43054e-05 -1.13303e-05
-1.38317e-05 -9.69588e-06 8.77506e-06
3.30045e-05 -6.35023e-08 0.00033338
-1.42226e-05 -1.00702e-05 -8.12616e-07
-1.35214e-05 -9.36664e-06 -5.78133e-07
-1.00091e-05 -9.95312e-06 -3.72112e-07
-1.43006e-05 -7.20607e-06 -5.28572e-07
-1.43282e-05 -3.34059e-06 -4.12476e-07
-1.25524e-05 5.91693e-06 -3.37094e-07
-1.50121e-05 6.76328e-06 -4.41672e-07
-1.32737e-05 1.07289e-05 -5.68913e-07
4.56429e-06 1.32373e-05 -3.90787e-07
-1.36449e-05 -8.59143e-06 -5.8373e-07
-1.15774e-05 -9.64393e-06 -4.33052e-07
-1.13871e-05 -9.24745e-06 -3.06396e-07
-8.70845e-06 -3.94175e-06 -1.51787e-07
-3.49175e-06 -4.00234e-06 -5.89375e-08
-7.65062e-06 1.55216e-07 -1.00481e-07
-8.49647e-06 3.75588e-06 -1.47054e-07
-8.05775e-06 1.36856e-05 -3.59546e-07
1.4934e-05 1.19405e-05 1.07161e-07
-1.83501e-06 3.93361e-05 -1.75216e-05
1.30125e-07 -3.96481e-10 -3.1456e-05
-9.49824e-06 -1.10091e-05 -4.13423e-07
-9.49901e-06 -4.50777e-06 -1.69544e-07
-8.31045e-07 -3.67371e-06 -3.29042e-08
-5.87528e-06 -3.51916e-06 -7.70386e-08
-2.01608e-06 5.22778e-06 -3.48004e-08
-1.43392e-06 8.13817e-06 -4.45709e-08
-5.47637e-06 9.33767e-06 -1.20078e-07
-3.85291e-06 8.46527e-06 -1.12133e-07
9.83766e-06 2.492e-05 -2.9023e-07
4.52597e-06 1.54854e-05 -1.66597e-05
-7.10873e-06 -1.08214e-05 -2.87412e-07
-2.94027e-06 -1.07534e-05 -2.01409e-07
-2.99825e-05 -7.15449e-06 -4.03012e-07
-4.00884e-06 -6.11252e-06 -8.9173e-08
1.81731e-06 -6.10484e-06 -5.72837e-08
-1.58345e-06 7.92597e-06 -1.99038e-08
-4.3447e-06 8.50417e-06 -7.65873e-08
-3.26659e-06 3.46053e-06 -7.80388e-08
1.31492e-05 1.21778e-05 1.31146e-07
4.48367e-07 7.67601e-06 -6.10678e-06
-3.23746e-06 3.23697e-09 3.88651e-05
-4.15732e-06 -1.28775e-05 -3.56738e-07
-4.74608e-06 -1.03262e-05 -1.77839e-07
-4.98238e-06 -6.54683e-06 -1.31235e-07
-1.18731e-08 5.30396e-06 -6.27893e-05
-3.44406e-06 -4.01799e-06 -4.9755e-08
-1.16117e-07 1.46621e-05 -6.92771e-06
9.97563e-07 -9.68409e-07 -4.23566e-09
-3.37721e-07 3.18952e-06 -1.27709e-08
-5.67698e-07 5.28841e-06 -2.98373e-08
-9.4674e-06 4.97328e-06 -1.86987e-07
1.21797e-05 1.60775e-05 -7.09083e-08
-6.52871e-06 -8.29677e-06 -1.9722e-07
-1.36014e-05 -9.01315e-06 -2.09258e-07
-1.11038e-05 -7.08275e-06 -2.2123e-07
-1.6256e-08 -4.99287e-06 4.5139e-05
-5.23546e-06 -4.28175e-06 -8.62551e-08
8.47302e-08 1.26666e-05 3.07105e-06
2.22483e-06 4.34958e-06 3.4663e-08
5.93625e-06 -1.42998e-05 -7.25166e-08
1.78505e-06 -4.73144e-06 -8.47087e-09
-6.32504e-07 6.09892e-07 -8.88089e-09
1.01554e-05 1.18779e-05 -9.22919e-08
-1.05832e-05 -1.04117e-05 -2.53038e-07
-1.07547e-05 -1.14685e-05 -2.49329e-07
-1.01785e-05 -8.32341e-06 -2.59212e-07
-6.07511e-07 -7.74538e-06 -1.15104e-07
3.57743e-06 -5.18922e-06 -7.94361e-08
5.63404e-06 3.81445e-07 -2.99417e-08
2.37345e-06 4.86158e-06 -3.86521e-08
4.17794e-06 1.18969e-05 -2.02118e-07
1.9235e-05 1.3814e-05 -1.56915e-07
-1.07111e-08 -6.98083e-06 3.88848e-05
-7.44957e-06 -1.41485e-05 -3.98361e-07
-4.87164e-06 -1.2535e-05 -3.33224e-07
-3.85842e-05 -4.27594e-07 -5.60905e-05
-2.05358e-06 -1.23236e-05 -3.21051e-07
3.45704e-06 -1.27727e-05 -3.17401e-07
9.03919e-06 -6.91625e-06 -2.13976e-07
1.16275e-06 -3.18084e-06 -5.18788e-08
4.6192e-06 9.09192e-06 -1.06146e-07
4.73983e-06 1.00511e-05 -1.7755e-07
1.94395e-05 2.0536e-05 -1.38724e-06
-2.52972e-08 -2.21068e-05 1.02452e-05
9.15005e-06 -1.13237e-05 -6.70585e-07
5.14042e-06 9.19151e-08 -3.60258e-08
-0.00014912 -2.08365e-06 -0.000176132
1.01482e-05 -7.33407e-06 -4.10351e-07
1.34627e-05 -7.43035e-06 -5.06443e-07
1.50778e-05 -3.08128e-07 -3.08172e-07
-1.20515e-06 1.86987e-06 9.00114e-08
8.40419e-06 6.49019e-06 8.23884e-08
1.90901e-05 2.21619e-05 1.06779e-07
-4.32067e-06 -0.000104082 -1.23936e-06
5.94728e-08 -1.51224e-06 0.000112822
1.12227e-05 -3.51783e-08 -2.93832e-05
6.15482e-06 0.000802551 0.000572864
8.93766e-06 -5.27375e-05 -4.92823e-05
-8.04137e-05 0.000344804 0.000294524
-8.28225e-06 3.36219e-08 -6.73347e-06
6.52884e-06 1.39734e-05 7.30231e-07
5.97581e-06 1.38185e-05 5.6506e-07
2.63961e-06 1.3176e-05 3.89787e-07
8.88125e-06 1.21968e-05 5.36285e-07
9.40168e-06 9.74286e-06 4.13649e-07
9.09747e-06 1.65898e-06 2.50707e-07
1.09355e-05 5.58215e-06 3.64567e-07
1.18102e-05 4.79007e-06 4.37491e-07
-5.65725e-09 -1.17278e-05 3.38166e-07
-9.80227e-11 1.23174e-06 -2.70898e-05
5.64373e-06 1.30805e-05 5.3709e-07
3.48412e-06 1.21171e-05 3.64245e-07
5.99947e-06 8.60276e-06 2.13131e-07
5.1866e-06 4.88642e-06 1.0675e-07
3.80113e-06 3.80316e-06 6.72875e-08
3.59987e-06 3.25539e-07 3.46437e-08
6.29658e-06 -2.07221e-06 9.62133e-08
4.80555e-06 -7.08585e-06 1.59823e-07
-5.4282e-06 8.21143e-06 -2.82356e-07
-1.4849e-10 3.49077e-06 -1.75088e-05
2.44655e-06 -2.30397e-09 -2.19767e-05
5.37322e-07 1.25326e-05 3.74061e-07
5.67546e-06 1.97284e-06 6.73837e-08
1.50116e-06 -9.46176e-07 1.5941e-08
4.5041e-06 -4.18016e-06 5.90685e-08
3.12715e-06 -3.33601e-06 2.81702e-08
1.35128e-06 -2.68562e-06 7.01765e-09
-3.98884e-06 3.39151e-09 3.08866e-05
3.95566e-06 -1.81883e-06 5.09711e-08
4.58495e-06 5.64582e-06 1.01126e-07
-8.73363e-07 2.61198e-05 -1.26374e-07
8.56622e-06 3.68932e-06 -9.57189e-06
6.66113e-06 -5.82674e-09 -3.08318e-05
-1.05701e-06 1.0832e-05 2.51336e-07
-4.00608e-06 7.64647e-06 1.40108e-07
5.89168e-06 4.41992e-06 8.44016e-08
3.9428e-06 2.70092e-06 5.18423e-08
3.03889e-06 3.09588e-06 4.48507e-08
4.04805e-08 -3.03243e-06 -1.20504e-08
2.50201e-06 9.92486e-06 7.94668e-08
5.63227e-06 6.28782e-06 1.12789e-07
-1.60852e-06 -1.00985e-05 4.3653e-08
-4.81852e-07 4.13752e-10 4.09017e-05
-2.13797e-06 1.14781e-05 3.07559e-07
-2.79837e-06 5.70704e-06 8.28253e-08
1.52467e-05 4.99165e-06 1.5413e-07
3.3116e-06 1.48923e-06 2.98077e-08
2.75821e-06 3.17571e-06 2.14838e-08
7.07544e-08 -3.94828e-07 1.66625e-10
-5.30353e-06 -2.44201e-06 2.7324e-08
7.33356e-06 -2.63263e-06 1.26505e-07
-3.29878e-07 4.19929e-06 -2.45097e-08
3.9137e-06 -4.00727e-09 -1.92269e-05
7.50786e-07 7.21489e-06 1.31416e-07
2.49237e-06 5.72322e-06 6.95784e-08
6.37896e-06 4.60465e-06 9.81541e-08
8.13882e-07 6.63942e-06 9.39091e-08
1.46122e-06 1.65303e-05 2.65042e-07
-5.26214e-06 1.0455e-06 5.54569e-08
-4.34521e-06 2.03026e-05 4.34639e-07
6.11484e-06 1.81166e-05 5.21263e-07
2.08332e-06 6.76685e-06 2.99448e-07
1.69217e-06 8.70095e-06 1.54293e-07
2.25561e-06 6.12427e-06 8.04287e-08
4.88198e-06 4.58677e-06 9.87907e-08
-9.31846e-08 -1.58807e-05 -3.63881e-05
-3.21773e-06 6.03318e-06 9.96231e-08
3.03189e-06 6.79016e-06 1.13581e-07
-4.08442e-06 8.86488e-07 2.30839e-08
-3.12819e-06 -2.06571e-06 2.25945e-08
3.56267e-06 -8.15962e-06 1.49682e-07
2.7288e-07 -9.35934e-06 1.5659e-07
8.50911e-11 3.67211e-06 -3.48722e-05
-1.07808e-06 8.7487e-06 2.246e-07
2.80988e-06 9.28791e-06 2.06449e-07
1.10661e-05 8.90869e-06 3.78512e-07
-1.53078e-06 8.29873e-06 1.83788e-07
-9.85303e-07 1.03236e-05 2.50004e-07
-4.96609e-06 3.86076e-06 7.96993e-08
-5.66893e-06 -4.87695e-07 4.41177e-08
2.46063e-06 -8.15957e-06 1.26794e-07
-5.40523e-06 -1.78732e-05 6.00263e-07
-1.26547e-05 1.64853e-06 2.65934e-07
1.26019e-05 2.01408e-05 1.53161e-06
4.49908e-06 1.00562e-05 7.18533e-07
-3.25272e-06 9.89112e-06 5.42938e-07
-6.28669e-06 8.61171e-06 4.42293e-07
-3.99266e-07 4.58404e-06 2.03854e-07
-1.56305e-05 2.4804e-06 2.24332e-07
-1.61949e-06 6.84654e-06 2.9802e-07
-7.48094e-06 -4.4426e-05 -1.5388e-06
0.0011305 0.000136331 0.00189651
-7.97344e-06 1.06653e-07 -2.26869e-05
-2.69619e-06 5.42521e-09 3.04239e-05
-3.67198e-06 -7.87463e-06 -3.24105e-07
-1.81397e-06 -7.06102e-06 -1.97143e-07
-1.09801e-07 -5.17955e-06 -9.79747e-08
-3.04197e-06 -5.58043e-06 -1.5378e-07
-3.09359e-06 -4.5989e-06 -1.16372e-07
-5.82054e-06 -2.83777e-06 -1.33162e-07
-4.14148e-06 -6.59331e-06 -1.47324e-07
-6.06658e-06 -1.29793e-05 -2.67213e-07
-7.0943e-06 -1.58339e-06 -6.7556e-07
-1.28807e-06 -9.12193e-06 -2.73541e-07
-2.38282e-07 -7.14488e-06 -1.53419e-07
-2.88334e-06 -1.96744e-06 -3.97867e-08
-2.90805e-06 -1.95381e-06 -3.78081e-08
-3.14142e-06 -1.36436e-06 -3.49719e-08
-4.53637e-07 -2.74411e-06 -2.36807e-08
-2.34975e-06 1.60988e-07 -2.40034e-08
-3.96568e-06 -6.38221e-06 -8.53206e-08
-8.63553e-06 -9.5057e-06 -7.40999e-07
-7.31248e-09 -4.61379e-06 -1.39958e-05
-3.43929e-07 -2.96659e-10 -3.2784e-06
3.5106e-06 -7.67747e-06 -1.97746e-07
6.62105e-07 -4.40516e-06 -5.40293e-08
-5.30516e-06 -3.63739e-06 -4.97287e-08
-1.91732e-06 -3.40263e-07 -1.22547e-08
-2.64196e-06 -1.15408e-06 -2.70162e-08
-3.12661e-06 -7.84412e-06 -6.94503e-08
-4.32201e-07 -5.18639e-06 -3.90521e-08
-4.81551e-06 -1.20258e-05 -1.41954e-07
-8.10864e-06 -2.04918e-05 -8.27492e-07
4.48655e-06 -5.75044e-06 -1.28978e-07
2.27888e-07 -2.59484e-06 -2.4652e-08
-3.51049e-07 1.06972e-06 -3.43355e-10
-3.67848e-06 5.14581e-07 -3.25583e-08
-4.42779e-06 5.83147e-08 -4.65892e-08
-6.9279e-07 -1.07869e-05 -8.18686e-08
-1.02818e-06 -2.20689e-05 -2.15838e-07
-3.76817e-06 -4.90286e-06 -1.15423e-07
-1.19808e-05 -5.62941e-06 -1.00009e-06
1.50176e-06 -5.00893e-06 -1.05245e-07
-9.51027e-07 -1.5757e-06 -9.0433e-09
-1.00868e-05 -3.19543e-07 -8.399e-08
-1.99471e-06 2.22574e-06 -1.03047e-08
-6.41814e-06 -4.8365e-07 -4.69635e-08
-3.18539e-06 -2.17044e-06 -3.68228e-08
1.05732e-06 -1.02161e-06 -1.59125e-09
-5.24396e-06 -4.05339e-07 -7.82951e-08
-1.29833e-05 -2.30001e-05 -1.49377e-06
3.70261e-10 -2.13075e-06 -4.02266e-05
3.02509e-07 -1.44885e-10 -3.28945e-06
1.47044e-06 -4.76509e-06 -8.97489e-08
-1.00967e-08 -3.36916e-06 -4.12493e-08
-3.34347e-06 -2.42259e-06 -5.35801e-08
4.06939e-06 -4.3556e-06 -7.26983e-08
-2.53054e-06 -4.73155e-05 -5.27786e-07
-8.66858e-07 2.73866e-05 5.4339e-07
-6.83897e-07 7.15025e-09 1.74115e-05
-1.38953e-06 -1.74373e-05 -4.06698e-07
-5.04528e-06 -1.60102e-05 -5.19442e-07
2.8619e-05 0.000511176 6.36132e-05
-5.39494e-06 -1.13759e-05 -9.85722e-07
-3.5826e-07 -2.93698e-06 -3.31102e-08
-1.08684e-06 -2.28724e-06 -2.07814e-08
-5.70268e-06 -1.70761e-06 -5.08687e-08
1.33796e-06 -1.55802e-06 -2.21767e-08
-5.98013e-06 -3.44719e-06 -9.96349e-08
-1.17818e-06 2.07251e-06 -1.94945e-09
-2.32268e-06 3.10697e-06 -2.07511e-08
-3.33783e-06 2.28941e-06 -5.35365e-08
-1.53735e-05 2.84467e-07 -1.23969e-06
-8.9935e-10 -4.37614e-06 1.17791e-06
1.6397e-06 -5.04903e-06 -1.22673e-07
-4.36999e-06 -4.1874e-06 -6.36654e-08
-9.54488e-06 -3.7076e-06 -1.99326e-07
-4.14373e-08 -2.3748e-06 -3.43089e-08
-7.79607e-06 -5.93895e-06 -2.15658e-07
6.38831e-06 5.34597e-07 -1.97524e-08
-3.24459e-06 -4.37299e-06 -6.32424e-08
-2.53211e-06 -5.79876e-06 -1.14823e-07
-1.59297e-05 -8.64832e-06 -1.78286e-06
-2.22497e-06 -1.19286e-05 -1.1298e-06
-3.00377e-07 -6.08305e-06 -3.57156e-07
-7.85302e-06 -2.93296e-06 -3.36838e-07
-2.53779e-06 -6.10875e-06 -3.23884e-07
-1.3698e-05 -9.13564e-06 -9.70191e-07
3.43203e-06 -1.15748e-05 -6.78421e-07
-7.54584e-06 -9.01944e-06 -7.14128e-07
-1.01147e-05 -1.12063e-05 -1.08485e-06
-1.77505e-05 -1.07578e-05 -3.71518e-06
5.44856e-06 5.63884e-06 -9.02528e-06
-2.258e-06 4.3764e-08 -4.58882e-06
-3.13638e-06 -1.88903e-06 -2.05981e-08
-2.69351e-06 -1.02847e-06 -4.63974e-09
-7.70608e-07 -4.65225e-07 -5.81981e-09
-2.68539e-06 -7.9207e-07 -9.43495e-09
-1.67543e-06 -1.76439e-07 -6.84021e-09
-1.51399e-06 1.1911e-05 9.85096e-08
-3.46152e-06 8.56074e-06 6.99981e-08
3.26375e-07 1.37809e-05 2.69366e-07
1.26977e-05 1.0386e-05 2.5902e-06
0.000719521 0.000136105 0.000358138
-2.28005e-06 -5.10267e-07 -2.28831e-09
-1.56827e-06 -7.51003e-07 -2.61276e-09
-1.98394e-06 -1.70942e-06 -1.5372e-08
-1.86601e-06 1.81812e-06 1.53773e-08
-1.79356e-06 1.87195e-06 1.64745e-08
-7.51756e-07 3.61822e-06 3.6057e-08
-1.37739e-06 2.44142e-06 1.24701e-08
2.12221e-06 1.37062e-05 2.31294e-07
2.06628e-05 4.68862e-06 2.08607e-06
1.59899e-09 -1.96726e-06 4.41559e-05
-1.13531e-06 2.11192e-07 3.43986e-09
-3.80524e-06 2.69678e-06 5.39092e-08
1.93561e-05 2.32458e-06 6.2053e-08
-3.16898e-07 1.61389e-06 5.52678e-09
-8.7104e-08 3.01596e-06 8.02911e-10
1.07779e-06 1.53178e-05 1.12768e-08
-3.65782e-06 7.60027e-06 -9.37409e-09
4.47427e-06 3.73069e-06 7.78856e-08
1.20578e-05 -7.97391e-06 8.81192e-07
-2.43346e-10 -4.7419e-07 -6.39148e-06
-2.51726e-06 -1.08401e-06 1.66316e-09
1.0226e-06 -9.048e-07 -1.94575e-09
-5.94544e-06 -1.22405e-06 -2.63498e-08
-6.68779e-09 -1.2218e-06 8.11915e-07
-2.71494e-07 -1.26244e-06 -1.58163e-09
-1.62283e-07 -1.61185e-06 -7.57565e-10
2.83216e-07 4.54971e-05 5.37872e-08
-1.39202e-07 -5.23814e-06 -1.76432e-08
-4.81761e-07 -1.05703e-08 -3.15306e-06
1.86003e-06 -1.92614e-05 -1.96814e-07
6.54771e-06 1.29556e-07 1.17281e-05
1.60021e-05 1.05106e-05 1.9836e-06
5.43025e-06 -3.47443e-06 -2.39233e-08
2.23816e-06 -6.48824e-07 5.51735e-10
-5.64348e-06 -1.30227e-06 -3.36768e-08
1.97915e-08 2.22704e-06 9.13825e-06
-7.81015e-07 9.37766e-08 -2.40088e-10
3.5886e-06 -4.92126e-07 1.5475e-08
1.58766e-06 8.95267e-07 1.15364e-08
7.08885e-07 8.78541e-07 7.17485e-09
1.79345e-06 2.85732e-06 4.91945e-08
1.12276e-05 3.97516e-06 9.31273e-07
0.000604243 9.35419e-05 -3.42524e-05
3.61219e-06 -1.20333e-06 -5.81495e-09
-3.06266e-06 -4.18332e-07 4.23517e-09
1.5672e-06 -1.451e-06 1.24977e-10
-1.04923e-06 2.58267e-07 1.77335e-09
1.88496e-06 -3.73437e-05 -8.69286e-08
5.03726e-06 5.89845e-05 -6.78989e-08
4.62277e-06 -2.35906e-05 8.23266e-08
-2.13682e-06 -1.09038e-08 5.85542e-06
1.57412e-06 -3.27683e-06 2.49511e-08
3.20492e-06 -2.58714e-06 2.27649e-07
3.13821e-06 2.23472e-09 1.11497e-06
3.64126e-06 -2.21702e-06 1.47644e-08
-1.8732e-06 -7.33779e-07 3.76288e-09
1.91345e-06 -3.52454e-07 2.46015e-09
6.42404e-06 -2.9203e-07 7.64437e-09
2.06825e-06 2.65093e-07 1.4929e-08
5.8585e-06 1.21946e-06 6.27598e-08
4.1733e-06 9.66384e-07 4.6313e-08
3.7086e-07 1.68623e-06 1.35052e-08
1.26868e-05 4.57401e-06 1.17302e-06
-2.01087e-09 6.61684e-06 4.38784e-05
4.39438e-06 -1.3943e-06 1.49032e-08
-1.15185e-08 -1.01489e-06 -9.23741e-09
1.70478e-07 -1.81307e-06 -1.55341e-08
5.77081e-06 7.00747e-07 5.88622e-08
6.43723e-06 1.64633e-06 1.01624e-07
-6.72609e-07 1.55641e-06 7.82492e-09
6.97916e-06 7.33789e-06 2.53371e-07
1.83256e-06 1.45985e-05 6.25295e-07
1.39888e-05 1.93246e-05 3.8416e-06
1.33427e-05 1.05107e-05 1.63483e-06
-5.56001e-06 1.57733e-06 1.59916e-07
3.69751e-07 1.39123e-06 7.7024e-08
1.21538e-05 7.1426e-06 7.26127e-07
5.53653e-06 7.82627e-06 6.16238e-07
2.06203e-06 1.51781e-05 1.17616e-06
8.76956e-06 1.63715e-05 1.43056e-06
6.20812e-06 8.86977e-06 8.77087e-07
2.33134e-06 5.31092e-06 9.41389e-07
-2.8653e-06 9.86254e-08 -4.06711e-05
-3.21898e-06 3.57713e-09 3.30891e-05
-6.87896e-06 -6.28889e-06 1.97245e-07
5.46917e-06 4.213e-06 -9.6698e-08
-2.64403e-06 -2.87162e-06 5.70417e-09
-5.61502e-06 -2.48264e-06 6.20264e-08
-4.43681e-06 -7.8349e-07 2.86716e-08
-6.79857e-06 1.58126e-05 2.13463e-07
-6.29967e-06 1.81293e-05 2.71564e-07
-7.66366e-06 -1.59951e-05 -4.28713e-07
4.85755e-06 1.34008e-07 1.16988e-05
3.42439e-06 6.55422e-06 4.74906e-07
-2.46683e-10 2.589e-07 -4.84685e-08
-4.25109e-06 -5.04382e-06 1.00594e-07
-3.56195e-06 -4.70493e-06 7.01545e-08
-4.05154e-07 -3.84233e-06 1.51472e-08
-3.21063e-06 -6.85168e-07 1.34848e-08
-1.77281e-06 -6.94522e-07 -1.29052e-10
-1.2227e-06 -3.38241e-07 -3.2836e-09
-2.54566e-06 5.13007e-07 2.43792e-09
-2.3743e-06 7.19309e-06 8.44081e-08
7.20676e-06 -6.69264e-06 3.62075e-07
5.26237e-10 4.48429e-06 -3.33115e-05
-1.07977e-06 -5.14472e-06 3.83061e-08
-3.20592e-06 -1.96984e-06 2.31606e-08
-2.55174e-05 -2.52181e-06 3.85135e-08
-8.74349e-07 2.34413e-05 5.8337e-05
-1.87077e-06 -1.10209e-06 4.84815e-09
-1.1546e-06 2.04691e-05 1.61579e-08
-1.62934e-06 8.17393e-06 1.20425e-08
2.69065e-07 6.10891e-10 -4.89732e-06
-1.15965e-06 1.97951e-05 4.35013e-08
1.02502e-06 1.9205e-08 2.44308e-06
2.39173e-07 -2.10546e-05 -9.97522e-08
7.68385e-06 2.04652e-07 4.91868e-06
4.70366e-06 -1.61219e-05 -5.41671e-08
0.000798871 0.000193992 -0.000187413
-7.33235e-10 -1.51275e-06 1.52009e-05
-1.34142e-07 -4.6945e-06 2.29968e-08
-1.20316e-06 -2.84997e-06 1.06585e-08
1.08702e-05 -9.73663e-07 -5.10278e-08
-2.34713e-06 -6.41674e-07 3.9382e-09
-1.18751e-06 -1.42633e-06 -5.8881e-10
-1.10648e-06 -3.52529e-05 -6.70708e-08
-1.76444e-06 3.75165e-06 2.09938e-09
4.39821e-07 3.07473e-05 4.02133e-08
1.18635e-06 3.11022e-08 8.56499e-07
2.05815e-06 -1.68298e-06 1.23591e-07
-5.4045e-07 0.000411405 -0.000219337
-7.89452e-06 5.84802e-09 1.58497e-05
6.53891e-06 -6.1937e-06 5.57087e-08
-5.61759e-07 -2.39421e-06 3.27567e-09
6.45339e-06 3.82066e-07 -2.91202e-08
6.19555e-09 5.76291e-07 2.10634e-06
-1.67403e-06 1.65032e-06 1.61288e-08
5.56932e-07 9.36716e-07 7.05573e-09
3.11883e-07 6.35379e-07 4.32196e-09
1.16007e-06 1.63102e-06 1.97791e-08
-2.43314e-06 2.61969e-06 9.32144e-09
2.28006e-06 -1.46356e-05 2.54528e-08
3.85184e-06 -4.45626e-06 1.79278e-08
-6.91391e-06 -2.99401e-06 3.76737e-08
-3.94612e-06 -3.94756e-06 1.96561e-08
-2.46157e-09 -2.24463e-07 -5.08539e-07
-9.01879e-08 -1.84105e-06 -2.48303e-09
-2.92785e-07 -6.52824e-06 -1.01668e-08
1.09601e-05 -1.9438e-05 4.33553e-07
1.40865e-06 7.18748e-06 -7.95799e-08
-2.01987e-06 -1.08665e-05 1.46033e-07
1.98533e-06 -5.93424e-06 2.22779e-07
-1.11201e-06 -4.69503e-06 5.96092e-10
-3.51406e-06 -3.4149e-06 2.07868e-08
-3.32149e-06 -2.81473e-06 2.27979e-08
7.68928e-06 -1.13921e-06 5.64587e-08
-5.23424e-07 -9.85787e-07 -3.3766e-09
6.81175e-06 2.38691e-06 1.23281e-07
8.70324e-07 3.56006e-06 4.81915e-08
8.68317e-07 5.05549e-06 9.02498e-08
5.00827e-07 6.93283e-06 2.10974e-07
1.20256e-05 -0.00019085 0.000415007
2.59068e-06 -8.54582e-10 2.85965e-05
3.59636e-06 -5.74534e-06 8.22327e-09
-2.53331e-06 -4.77608e-06 2.42494e-08
-5.16883e-06 -2.74861e-06 5.20915e-08
5.86174e-06 -1.61374e-06 7.56843e-08
-7.03847e-08 -1.4162e-06 -1.0433e-08
6.7009e-06 5.26571e-06 2.00466e-07
1.01723e-06 8.19365e-06 2.93038e-07
4.85954e-06 7.01177e-06 3.30354e-07
-6.39032e-07 -1.51675e-06 -1.39666e-07
-5.33765e-07 7.71879e-10 1.03477e-05
4.01146e-07 -4.61153e-06 -1.86657e-07
8.96736e-07 2.60011e-07 1.98974e-08
-2.55321e-06 8.31056e-07 6.20824e-08
6.87e-06 1.60295e-06 2.42188e-07
-5.49161e-06 2.19563e-06 1.55483e-07
1.10397e-05 1.57538e-07 5.97563e-07
-4.87468e-06 3.43713e-06 2.19687e-07
-1.36909e-06 2.99871e-06 1.38811e-07
-2.79373e-06 4.838e-07 -2.27132e-07
5.46312e-09 -1.12149e-05 1.23981e-05
-0.000226828 -0.000957896 8.35526e-05
-0.000472739 -0.000791553 -0.000212822
-0.000655057 -6.48651e-06 -0.00126873
-6.87691e-05 1.43765e-06 5.04141e-05
-1.86277e-06 -2.21659e-10 -2.28971e-05
3.68977e-06 4.0142e-06 -1.58358e-07
3.88477e-06 3.66675e-06 -1.13817e-07
2.45352e-06 3.75376e-06 -3.74969e-08
4.19615e-06 2.62032e-06 -7.86034e-08
4.14186e-06 1.49911e-06 -5.13939e-08
3.3965e-06 1.39013e-05 7.19384e-08
6.59943e-06 8.63602e-06 -2.77646e-08
4.7366e-06 -1.29687e-05 -1.50436e-07
1.17858e-05 1.06452e-05 -6.33073e-07
2.73484e-06 3.56836e-06 -1.00298e-07
3.23189e-06 3.78325e-06 -9.41442e-08
1.24927e-05 1.15234e-06 -6.21678e-08
2.62853e-06 2.04517e-06 -1.80809e-08
8.72465e-07 2.00624e-06 -1.53852e-09
1.48644e-06 1.0187e-06 1.24112e-09
2.47471e-06 -3.13915e-07 -7.59422e-09
3.12755e-06 4.48935e-06 2.69357e-08
1.41063e-05 1.26622e-05 4.88718e-08
1.48373e-06 5.57836e-06 -1.10055e-07
2.19649e-06 3.41014e-06 -3.15049e-08
-1.15222e-06 3.14358e-06 -4.2736e-10
2.14048e-06 -3.75764e-08 -8.25239e-09
8.39763e-07 6.0087e-06 2.73804e-08
3.5687e-07 1.87373e-05 8.25369e-08
-1.40449e-07 4.68055e-10 9.0694e-06
3.66795e-06 1.43939e-05 5.07556e-08
8.1705e-07 1.55764e-08 1.52134e-05
2.87967e-06 -1.90768e-05 -4.83754e-08
1.37059e-05 1.98646e-06 1.36624e-07
-9.84095e-06 2.6526e-06 1.40651e-08
8.61869e-07 3.46484e-06 -2.72294e-08
5.40567e-06 2.22328e-06 -4.32774e-08
2.36765e-06 5.60891e-07 -8.7759e-09
6.49977e-07 8.77978e-07 8.61576e-10
-1.28825e-06 6.89697e-06 2.37752e-08
1.79803e-06 8.04453e-06 1.83879e-08
2.01252e-06 -3.0461e-06 1.81704e-08
1.05654e-05 7.26497e-06 -5.58978e-09
1.1842e-05 6.36051e-06 -1.13684e-07
5.04862e-08 5.06862e-06 -4.17094e-06
8.29493e-07 2.88727e-06 -1.18184e-08
3.25048e-06 2.29443e-06 -2.90553e-08
1.25929e-06 -9.34955e-08 -2.82311e-09
1.58654e-06 -7.00469e-07 1.44219e-09
-1.2707e-06 -4.28398e-07 -7.0982e-09
-1.07872e-06 -1.93945e-06 -2.86523e-08
3.24074e-06 -1.99587e-06 -1.00715e-08
5.06988e-06 5.67053e-06 3.36228e-07
-4.52226e-09 -2.15514e-07 -5.10031e-05
1.8377e-06 4.08242e-06 -3.90307e-08
5.05429e-06 2.79461e-06 -3.14055e-08
-1.08228e-06 8.14245e-07 8.60688e-09
7.84837e-07 2.40559e-06 -1.40298e-09
7.26136e-07 -5.39953e-06 -3.91523e-09
-8.11561e-07 6.98125e-06 -1.87427e-08
-7.43957e-08 6.00006e-06 -1.83715e-08
1.74157e-06 5.34532e-06 -1.33994e-08
1.48798e-06 7.37703e-07 6.35847e-08
3.88607e-06 3.94967e-06 -4.72458e-08
3.14361e-06 3.37063e-06 -2.89655e-08
4.13236e-06 2.47127e-06 -4.7791e-08
-1.42203e-06 2.69974e-06 -1.19965e-08
9.16114e-07 1.97546e-06 1.06794e-09
-4.08833e-06 -1.88664e-06 -8.14403e-08
6.40155e-07 -3.51985e-06 -4.90909e-08
-1.80139e-06 -7.98208e-06 -1.98184e-07
5.97539e-06 -4.6505e-06 3.37087e-08
-1.1137e-05 7.40533e-10 -4.07824e-05
2.26909e-06 5.64503e-06 -5.18375e-08
2.25714e-06 5.14265e-06 -2.28455e-08
3.29532e-06 1.5303e-06 -2.32179e-08
-6.28551e-07 2.93673e-06 -2.42844e-10
1.01051e-06 3.74532e-06 1.03353e-08
-6.64357e-06 -3.14657e-06 -2.08774e-07
-1.19482e-07 1.48256e-06 3.5779e-08
-4.39557e-07 1.03221e-08 -4.74999e-06
-1.49401e-06 2.94304e-06 1.8049e-08
4.88788e-06 7.51968e-06 1.83459e-07
-4.7938e-09 -4.43202e-06 -3.10553e-05
-1.16592e-06 4.54651e-09 -5.69845e-05
6.68246e-06 1.06861e-05 -3.46124e-07
1.12393e-06 4.35576e-06 1.17322e-07
5.90045e-07 3.05716e-06 1.1167e-07
2.65812e-06 5.43179e-06 2.11282e-07
3.47952e-07 4.24438e-06 1.89801e-07
-6.37839e-07 7.63361e-06 3.06992e-07
7.58244e-07 6.36355e-06 2.43897e-07
2.9021e-06 5.87054e-06 1.13702e-07
2.56716e-06 6.19408e-07 -4.69005e-08
-8.19679e-06 -1.11907e-06 1.50834e-05
4.13366e-09 1.89938e-06 4.33883e-06
-4.47801e-06 6.36259e-09 5.08248e-05
-0.00020644 -0.000284555 0.000291904
2.2384e-06 -2.88197e-05 -0.00075064
3.76693e-06 -4.34717e-09 -2.62068e-05
4.23602e-07 8.82537e-07 -2.85414e-08
-1.15282e-06 -2.2217e-06 5.34568e-08
-1.26674e-06 -3.12936e-06 3.49706e-08
-1.6839e-06 -2.11044e-06 4.46458e-08
2.5014e-06 1.79288e-06 -3.87391e-08
3.33321e-07 -5.80361e-06 -4.58731e-08
1.01166e-07 -3.98444e-06 -2.91757e-08
-1.94674e-06 -8.75365e-07 2.32848e-08
-2.8421e-06 3.57243e-08 -3.17314e-08
-1.18124e-06 -1.75002e-06 5.50701e-08
-1.73799e-06 -2.08964e-06 5.98474e-08
-3.89696e-06 -7.90259e-07 3.07856e-08
-2.03745e-06 -1.70404e-06 1.82459e-08
-6.64777e-07 -1.54954e-06 3.10477e-09
-1.1587e-06 -4.2559e-07 1.13158e-10
-2.0505e-06 1.12689e-06 1.96323e-08
-1.21594e-06 -6.73986e-06 -3.82369e-08
-6.00558e-06 5.82303e-06 -2.98077e-08
7.86046e-06 2.62808e-08 -1.0541e-05
-6.83945e-07 -3.03194e-06 7.11158e-08
-1.57767e-06 -3.145e-06 3.38703e-08
2.21649e-07 -8.01477e-07 -5.2057e-10
-1.78143e-06 7.79032e-07 1.11101e-08
-7.29084e-07 -1.13704e-05 -5.46257e-08
-3.33461e-07 -4.0075e-06 -1.85259e-08
-9.93431e-08 -2.58983e-06 -1.03258e-08
-2.50973e-06 -1.13321e-06 -7.52627e-09
-3.06116e-06 4.69616e-06 -8.31984e-09
-2.26465e-09 -9.84419e-08 2.24639e-06
-1.21973e-05 -4.64798e-06 1.25126e-07
-6.02838e-07 -2.62932e-06 2.58673e-08
-3.23402e-06 -7.84174e-07 2.46734e-08
-1.76622e-06 -7.73284e-07 8.42584e-09
-9.17017e-07 -3.72807e-07 -6.05292e-10
5.97484e-06 6.30083e-06 3.23994e-08
-2.88198e-07 2.57563e-07 1.65345e-09
-5.37487e-07 -8.82794e-06 -3.35103e-08
-4.01378e-06 1.94342e-06 -7.35392e-08
4.29239e-09 -3.63825e-06 -6.25247e-05
3.71636e-06 -5.76786e-07 -1.10556e-08
-8.31327e-07 -2.47272e-06 1.21451e-08
-3.6943e-06 -9.54763e-07 3.1813e-08
-7.57021e-07 -7.41479e-07 -1.50479e-09
-3.19319e-06 -2.99913e-07 -1.54124e-08
1.97817e-06 -1.87073e-07 6.03208e-09
-6.01362e-08 -7.94072e-06 -8.77726e-06
7.88061e-07 1.26165e-06 2.05073e-08
-2.73819e-06 1.17308e-06 5.90785e-09
-4.27218e-06 2.22203e-06 -8.28871e-08
-2.35497e-08 -4.38081e-06 9.72636e-05
-3.30983e-06 -2.09345e-06 3.87522e-08
-2.95205e-07 -1.57781e-06 1.12191e-08
-3.98704e-06 -1.1368e-06 3.79447e-08
2.8543e-08 -2.24636e-06 5.58214e-09
-6.63862e-07 2.86236e-06 -4.1067e-09
-1.11767e-05 1.6561e-06 -3.10613e-08
4.06671e-10 -6.18661e-07 2.03681e-06
-1.00969e-06 -1.27904e-06 -2.20779e-08
-4.62831e-07 1.71506e-06 1.74275e-08
-1.86627e-06 8.27351e-07 -1.70599e-08
-1.09117e-08 -7.28879e-06 9.36266e-05
-3.17616e-06 -1.78991e-06 3.50947e-08
-1.81911e-06 -1.93988e-06 1.69667e-08
-2.56078e-06 -1.02481e-06 1.96471e-08
-3.53333e-06 -3.05597e-06 -1.24684e-08
-1.04918e-06 -2.19798e-06 2.3558e-10
-1.9071e-06 1.17949e-06 -1.55003e-09
-3.14994e-07 2.48781e-06 3.64235e-08
2.98341e-06 6.16606e-06 1.91273e-07
-4.12613e-06 -3.28783e-06 -1.52128e-07
2.29079e-05 3.73467e-09 1.17489e-05
-3.99385e-06 -3.61207e-06 4.6707e-08
-7.20301e-07 -4.85414e-07 -3.60767e-10
-2.3726e-06 -1.51124e-06 4.96212e-09
-5.00412e-06 -1.48791e-07 8.40166e-06
-1.54451e-06 -4.8185e-06 -5.70288e-09
-1.93953e-07 -1.10859e-09 4.6014e-06
-9.17502e-07 -5.53638e-06 -8.83004e-09
-6.3324e-06 -6.07878e-08 2.81441e-05
2.67076e-09 -1.20679e-05 -1.28217e-07
1.24032e-05 1.30946e-07 -3.51291e-05
7.08705e-07 -1.03531e-06 5.79482e-09
-5.23988e-06 -5.01677e-06 -1.17535e-07
-9.1955e-06 -0.000160833 -1.00727e-05
-3.11744e-06 -4.87421e-07 -4.59517e-08
1.81089e-06 5.10707e-07 1.32001e-08
-9.82352e-07 -4.00204e-06 -1.18353e-07
0.000336785 1.97578e-06 -0.000112873
-2.58985e-07 -2.47111e-06 -8.00424e-08
-8.12825e-07 -2.96977e-06 -1.30714e-07
2.50188e-07 -3.43231e-06 -1.36594e-07
-4.11531e-05 -5.60042e-07 -0.000305289
-5.6672e-06 -3.24333e-06 -1.56706e-07
1.45679e-06 -3.93497e-06 -1.07547e-07
5.89775e-07 -5.42715e-06 1.52676e-07
-1.75278e-06 -1.71227e-06 3.04151e-07
4.25074e-08 3.00182e-06 -5.69343e-05
0.00023581 0.00017823 -8.45899e-05
-3.35724e-06 -0.00119763 -0.00194682
-4.86701e-07 3.63469e-08 -5.74556e-05
-1.49427e-06 -1.87642e-06 7.83421e-08
-1.34376e-06 6.77958e-07 2.00351e-08
-4.09119e-05 4.79365e-07 7.32062e-05
6.13596e-07 2.3285e-06 -2.54185e-08
-3.53248e-05 -1.04757e-06 4.33343e-05
-6.97738e-07 1.3416e-06 3.88917e-09
9.78889e-06 -3.82922e-08 -1.7454e-05
9.83587e-07 1.67779e-06 -1.66133e-08