<?xml version="1.0"?>
<VTKFile type="UnstructuredGrid" version="0.1" byte_order="LittleEndian" compressor="vtkZLibDataCompressor">
 <UnstructuredGrid GhostLevel="0">
  <Piece NumberOfPoints="1111" NumberOfCells="1111">
   <PointData>
    <DataArray type="Float64" Name="Elongation" NumberOfComponents="3"/>
5.61325e-06 -1.86969e-06 2.77172e-08
2.02421e-06 -1.60698e-06 9.09321e-09
3.36201e-06 -4.94035e-06 1.70851e-08
2.66145e-06 -2.29754e-06 1.21557e-08
-5.09354e-07 -1.58992e-06 3.34562e-09
2.52023e-06 -2.79911e-06 1.38463e-08
2.00034e-06 -3.62334e-06 1.5654e-08
1.65761e-08 -3.30934e-06 1.2724e-08
1.56587e-06 -4.23302e-06 1.87148e-08
-2.41071e-05 -7.37878e-06 -2.68277e-07
2.48303e-06 6.11967e-07 7.7666e-09
3.20817e-06 4.85557e-08 8.94236e-09
1.30383e-06 -1.77312e-06 3.43705e-09
1.07e-06 -1.54868e-06 2.3158e-09
4.51899e-07 -4.42238e-07 8.2556e-10
1.54854e-06 -3.02531e-07 3.28964e-09
5.19884e-07 -1.351e-10 -2.13462e-07
1.36375e-06 -8.36601e-07 2.78224e-09
1.03528e-06 -8.78024e-07 1.82301e-09
-1.02822e-10 -7.51462e-08 -5.99001e-06
-1.94972e-06 -6.9122e-07 -2.24699e-09
-1.58081e-05 -6.10953e-06 -1.34721e-07
1.94098e-06 1.28776e-06 5.38328e-09
1.20396e-06 2.5337e-06 5.85808e-09
3.20517e-06 -2.56522e-09 -1.06562e-06
1.8937e-06 2.45262e-06 6.00142e-09
-1.62858e-07 -3.54872e-11 1.2518e-05
7.19058e-07 -6.8265e-07 -7.62698e-10
5.39618e-07 1.16458e-06 1.68809e-09
8.53901e-07 1.30479e-06 1.99717e-09
1.51679e-06 3.1468e-07 2.55416e-09
-1.09375e-06 -3.39932e-07 -1.23258e-10
1.61402e-06 2.20432e-09 1.97143e-06
3.29616e-07 -7.23799e-07 1.47717e-09
-6.87196e-06 -2.93128e-06 -6.12043e-08
1.08457e-06 1.15601e-06 3.06368e-09
1.9232e-11 -5.65933e-07 6.62626e-06
5.13479e-07 8.16462e-07 2.22611e-09
8.0039e-10 -1.2387e-06 1.97345e-06
1.65637e-07 1.16357e-06 1.37571e-09
1.10346e-06 7.87317e-07 1.62739e-09
5.00273e-07 8.5003e-08 2.80813e-10
1.19881e-06 1.03604e-06 2.1397e-09
2.76366e-11 2.65266e-08 7.12921e-06
2.11515e-06 4.30117e-08 3.95546e-09
-5.35952e-07 -2.72044e-07 1.21258e-10
5.58497e-09 -2.81464e-07 1.31697e-10
-6.54144e-06 -2.73617e-06 -5.69555e-08
1.72021e-10 -2.57203e-06 2.61021e-05
1.41274e-06 -4.05146e-07 1.29911e-09
1.34009e-06 4.49948e-07 3.34346e-09
1.22089e-06 -2.45967e-07 1.20725e-09
-2.20042e-07 4.53167e-07 -1.00914e-11
3.17293e-07 4.37607e-07 -2.89874e-11
-1.09311e-07 -9.69426e-12 -7.79212e-06
3.36105e-08 3.47713e-07 -7.12726e-11
3.45525e-11 1.0335e-06 -1.71849e-06
-6.65642e-07 -8.76057e-10 5.16355e-06
1.37508e-06 -1.04159e-06 3.00997e-09
-5.33751e-07 -3.45866e-07 3.17775e-10
3.81179e-07 -1.44071e-06 3.46428e-09
-6.53627e-06 -7.29503e-06 -5.89103e-09
1.30412e-06 -4.23998e-10 3.96256e-05
-1.60306e-06 1.77376e-06 5.44211e-09
1.20349e-06 2.04781e-06 6.12136e-09
4.40428e-07 1.68087e-06 3.12018e-09
9.42607e-09 -2.98402e-07 -8.52902e-11
5.1496e-07 -1.09484e-06 5.05703e-10
5.37281e-07 -3.96575e-07 3.21207e-10
2.07233e-06 -2.21125e-06 6.00757e-09
-2.18163e-06 -2.66979e-06 1.02847e-08
-8.45303e-07 -3.07839e-06 1.0676e-08
-8.10844e-06 -9.86643e-06 3.48989e-08
2.31425e-07 1.30716e-06 2.14307e-09
1.2798e-06 2.02819e-06 5.43108e-09
2.06398e-07 8.33299e-07 1.15853e-09
-2.14018e-07 3.3524e-07 2.34967e-10
-1.09553e-06 -7.84772e-07 1.02645e-09
-2.29336e-07 -9.69014e-07 7.8805e-10
2.54728e-07 -3.78698e-07 4.72622e-10
-6.26575e-07 1.178e-09 1.6036e-05
-2.4682e-06 -1.09805e-06 5.26794e-09
-6.50398e-07 -2.02066e-06 2.63361e-09
-7.73546e-06 -5.13271e-06 -3.78225e-08
-7.48946e-07 1.88324e-06 6.10555e-09
2.78618e-06 1.81717e-06 8.06254e-09
-9.62366e-07 1.84916e-06 5.89974e-09
-5.57918e-07 1.09326e-06 2.25375e-09
-1.24392e-06 -5.51543e-07 2.09117e-09
-1.32329e-06 2.18137e-07 1.26093e-09
-4.61293e-08 7.09712e-09 -2.85785e-12
6.56771e-06 -1.24893e-08 1.27506e-05
-2.21213e-06 -1.77353e-06 6.99568e-09
-1.76867e-06 -2.55245e-06 8.28437e-09
-8.25486e-06 -2.80378e-06 -3.89045e-08
1.28113e-06 -1.37327e-10 4.8902e-05
4.99382e-11 -3.78047e-07 2.52645e-05
-3.6301e-06 4.98878e-07 1.09538e-08
-8.61761e-07 1.05402e-06 3.67036e-09
-2.21186e-06 1.36131e-06 7.99444e-09
-9.49824e-07 -1.77256e-08 1.62518e-09
-2.01089e-06 -2.21219e-06 4.0984e-09
-8.63369e-07 -5.92357e-07 1.85297e-09
3.57774e-07 9.64145e-11 4.99949e-06
1.41845e-07 -1.77004e-06 1.76104e-09
-1.31192e-06 1.81305e-09 4.87916e-06
-2.31713e-06 -3.11763e-06 8.84188e-09
-1.76354e-06 -2.8948e-06 8.38326e-09
-7.68461e-06 -8.00153e-06 2.89589e-08
3.85737e-07 -9.9872e-12 -4.90109e-05
-7.61505e-06 -2.36399e-05 -2.37019e-07
-2.76434e-06 -1.60477e-05 -1.66923e-07
-4.13633e-06 -6.3849e-06 -4.26248e-08
-2.70623e-06 -9.52659e-06 -8.19397e-08
-3.69983e-06 -7.46141e-06 -4.28592e-08
-7.85928e-06 -7.29787e-06 -7.99873e-10
-1.24201e-06 -8.28992e-06 -5.36177e-08
-5.58372e-06 -7.57246e-06 -1.45515e-08
-2.26375e-06 -8.44796e-06 -2.52381e-08
-6.18802e-06 -6.70611e-06 3.4829e-08
-2.58432e-11 5.40268e-07 -8.12771e-07
1.05587e-06 -3.69332e-10 -4.45242e-05
-3.77929e-06 -1.37209e-06 -2.14332e-08
-2.79237e-06 -2.00667e-06 -1.64119e-08
-1.65722e-06 -5.88789e-07 -6.22054e-09
-2.79509e-06 2.58361e-07 -7.4767e-09
-2.08184e-06 -3.50284e-07 -7.33866e-09
-3.51284e-06 1.23075e-06 -1.43412e-08
-3.35486e-06 1.86408e-06 -1.56554e-08
-3.60322e-06 1.529e-06 -2.03515e-08
1.42475e-07 4.71716e-06 -2.42327e-08
5.19396e-06 5.51258e-06 1.51825e-07
-3.935e-06 -1.46302e-06 -2.09458e-08
-3.56587e-06 -1.03577e-06 -1.46831e-08
-7.94484e-07 -2.32177e-06 -8.45794e-09
1.13918e-06 -2.22335e-09 -1.60842e-05
3.1322e-07 -2.20638e-06 -5.17888e-09
-2.46533e-07 -7.94886e-07 -1.07408e-09
-1.93207e-06 -7.98855e-07 -5.27608e-09
-1.58689e-06 -4.39683e-07 -3.78744e-09
2.2025e-08 1.28692e-12 -2.57463e-06
-2.01484e-06 1.2267e-06 -7.04825e-09
-3.97219e-07 1.00787e-06 -3.31795e-09
1.84026e-06 2.30194e-06 4.2596e-08
-3.95804e-06 -1.84164e-06 -2.06742e-08
-5.74545e-07 -5.54807e-07 -2.22603e-09
-9.96333e-07 -9.71522e-07 -2.8943e-09
-9.06827e-07 -1.32798e-06 -2.76967e-09
-2.54612e-07 1.16563e-06 -1.72879e-09
-9.28614e-08 1.11428e-06 -1.75884e-09
-1.32874e-06 1.54477e-06 -5.26013e-09
-1.40797e-06 4.6774e-07 -4.17345e-09
-6.48406e-08 1.03448e-06 -2.47535e-09
-4.41515e-06 1.59767e-06 -1.11544e-07
-2.65846e-06 -1.51908e-06 -1.08125e-08
-1.38705e-06 -1.76565e-06 -4.72857e-09
-1.46305e-06 -1.71817e-06 -5.65188e-09
-1.13161e-06 -9.80433e-07 -2.33299e-09
1.18727e-06 -4.18339e-07 -1.96846e-09
-1.44113e-07 6.52504e-07 -5.44468e-10
-1.16956e-06 9.78666e-07 -3.06611e-09
-1.65178e-06 7.25516e-07 -4.7046e-09
3.93219e-07 9.69518e-07 -6.42812e-10
-4.30013e-06 -4.13849e-08 -9.91848e-08
-2.27082e-06 -8.4842e-07 -9.35281e-09
1.42774e-07 -1.89551e-06 -4.01166e-09
-1.67009e-06 -7.73466e-07 -3.3121e-09
-3.4263e-07 -1.26043e-06 -1.88583e-09
-4.90459e-09 4.40785e-06 -8.79887e-07
1.11907e-06 9.7205e-07 -2.25282e-09
2.40834e-07 1.18865e-06 -1.89518e-09
-1.03675e-06 1.50346e-06 -3.59407e-09
-1.97713e-06 1.61981e-07 -5.21073e-09
2.32678e-07 2.2604e-06 -6.65793e-09
-3.61306e-06 3.94336e-06 -1.02008e-07
8.68153e-08 1.90654e-11 5.03828e-05
-1.2068e-06 -4.30976e-08 -3.59719e-09
-9.99005e-07 -1.46378e-06 -4.03105e-09
-1.0354e-06 -1.07837e-06 -3.04325e-09
-1.97413e-06 3.32704e-07 -3.40686e-09
1.20386e-06 1.1959e-07 -2.19476e-09
1.74347e-07 1.87991e-06 -4.08056e-09
1.49153e-07 2.45191e-06 -6.26247e-09
1.05835e-06 1.79074e-06 -4.63852e-09
2.28874e-06 2.41817e-06 -9.90848e-09
-5.21601e-06 1.01409e-05 -2.44995e-07
-1.62486e-08 -1.10781e-11 -5.0008e-05
-2.53336e-06 -2.17097e-06 -1.17603e-08
-3.18521e-07 -2.02862e-06 -6.06489e-09
-1.06591e-06 -2.68603e-06 -1.02717e-08
-1.15678e-06 -2.31485e-06 -7.00461e-09
1.80175e-06 2.41274e-07 -3.44661e-09
-7.43469e-09 -5.18168e-07 -3.94538e-10
1.11961e-06 1.03251e-07 -1.18905e-09
1.62212e-06 2.86244e-07 -2.43798e-09
1.66612e-06 2.31168e-06 -7.2004e-09
-3.97297e-06 3.49911e-06 -9.5144e-08
-1.8307e-10 -5.53931e-07 1.10561e-05
-2.66276e-07 -4.50033e-11 4.95355e-05
-2.00639e-06 -2.36978e-06 -1.18782e-08
-5.58725e-07 -1.66273e-06 -5.31355e-09
-5.20084e-07 -2.54069e-06 -8.89698e-09
-1.31223e-07 -3.50292e-06 -1.51417e-08
2.96527e-06 -1.59827e-06 -1.34274e-08
1.35068e-06 -1.70695e-06 -4.69244e-09
1.00545e-06 1.11189e-06 -3.49449e-09
2.03597e-06 2.32608e-06 -9.83241e-09
1.59933e-06 3.92372e-06 -1.86394e-08
-2.56951e-06 6.60728e-06 -1.12655e-07
3.62112e-07 -3.94021e-06 -2.71236e-08
1.92868e-07 -4.59631e-06 -2.97756e-08
7.07995e-07 -4.29936e-06 -2.70871e-08
-2.70476e-07 -4.17317e-06 -2.43582e-08
3.73901e-06 2.87149e-07 -1.57691e-08
1.33646e-06 -1.50888e-06 -6.60978e-09
4.80963e-07 -1.53657e-06 -4.67153e-09
3.04636e-06 -6.43799e-07 -1.26837e-08
3.27403e-06 -6.72438e-07 -1.2362e-08
-1.50966e-06 9.15354e-06 -1.2238e-07
4.97147e-06 5.68521e-06 1.64673e-07
3.01758e-06 3.53171e-07 -4.21298e-09
3.47669e-06 -4.607e-06 -1.20314e-07
1.78658e-06 -2.1e-06 -5.25295e-08
4.05133e-06 7.16046e-09 5.70627e-05
7.47989e-06 -4.05823e-06 -1.798e-07
8.29291e-06 -4.6949e-06 -1.88683e-07
4.67394e-06 -1.56188e-06 -6.83842e-08
7.38432e-06 -2.76474e-06 -1.16221e-07
1.74522e-06 2.37219e-06 2.03178e-08
5.21486e-06 5.26729e-06 -1.21661e-08
2.73492e-09 1.06739e-06 2.09614e-06
2.95192e-06 1.11411e-09 -1.93726e-05
-9.35191e-07 3.3352e-06 2.04699e-08
3.88775e-07 4.397e-06 2.62457e-08
-1.2883e-06 4.11362e-06 2.29427e-08
7.71471e-07 3.05699e-06 1.76508e-08
1.75373e-06 4.39111e-06 2.8394e-08
1.58652e-06 2.08412e-06 1.22238e-08
1.77133e-06 2.20964e-06 1.30082e-08
3.32249e-06 2.25228e-06 1.95604e-08
3.17652e-06 -6.33556e-07 2.14364e-08
6.52089e-06 -4.35147e-06 3.80134e-07
3.14809e-07 3.0681e-06 1.46303e-08
-1.99129e-07 1.61821e-06 6.35757e-09
-5.58348e-07 2.83855e-06 8.39698e-09
2.65047e-07 1.09257e-06 2.07574e-09
1.62582e-06 5.36198e-07 3.10892e-09
1.13416e-07 -5.33841e-07 2.84925e-10
9.05193e-07 -7.03825e-07 2.26051e-09
2.11152e-07 -1.48232e-06 3.26703e-09
1.09198e-06 1.26802e-06 2.82834e-09
5.02803e-06 1.23823e-06 2.08354e-07
-2.05424e-07 2.20178e-06 8.49893e-09
2.1207e-07 -1.39633e-06 1.14361e-09
3.42435e-07 -1.3721e-06 2.2019e-09
3.05381e-07 -1.87512e-06 4.80656e-09
5.23802e-07 -1.65316e-07 4.47354e-10
-5.88087e-07 2.43106e-07 2.8901e-10
8.30697e-07 4.1804e-07 1.27305e-09
1.10578e-06 7.02149e-07 2.40062e-09
3.38155e-07 -1.0959e-06 2.62493e-09
6.68796e-06 -2.34529e-06 2.09912e-07
-3.87346e-07 1.704e-06 4.62351e-09
-2.02647e-06 1.59508e-06 8.63678e-09
-5.73423e-07 8.70754e-07 1.47534e-09
4.61748e-07 3.53884e-07 5.74377e-10
5.25957e-07 -1.04474e-07 3.22888e-10
-2.61732e-07 3.72811e-07 2.62635e-10
5.19505e-07 6.47566e-07 8.42574e-10
1.23082e-06 6.5787e-07 3.07467e-09
-1.1146e-06 -4.47472e-10 -6.22241e-06
-8.88018e-07 -1.54097e-06 2.48625e-09
6.50281e-06 -1.72789e-06 1.90945e-07
1.86753e-11 4.53507e-08 2.38845e-05
-1.90404e-06 1.08761e-06 6.57021e-09
-3.11162e-06 1.03706e-06 1.02323e-08
-1.46022e-06 2.94084e-07 2.72227e-09
3.45098e-07 8.93752e-07 1.31122e-09
2.30529e-07 5.81492e-07 4.95831e-10
-2.47009e-07 3.19116e-07 1.31142e-11
-1.05361e-08 4.72034e-06 3.47059e-06
-1.24473e-06 -3.52038e-07 2.42183e-09
9.98274e-10 -2.70154e-07 2.83321e-10
-1.07817e-06 9.07725e-08 -2.64053e-10
5.69385e-06 1.08007e-06 1.54689e-07
4.06953e-07 1.82162e-11 4.50825e-05
-4.03688e-07 5.21371e-08 1.31753e-10
-1.94517e-06 8.09758e-07 6.57175e-09
-1.54371e-06 -6.2473e-07 2.08204e-09
-1.70628e-07 9.50845e-07 2.16468e-09
3.59596e-07 2.32103e-06 6.06051e-09
-1.01102e-06 1.56986e-06 3.03262e-09
-1.8988e-06 1.13955e-06 7.00953e-09
1.0723e-06 2.10138e-06 6.30669e-09
-2.46767e-07 -3.19821e-07 -7.52321e-11
6.94742e-06 -4.33429e-06 2.25145e-07
2.83909e-11 5.23523e-07 1.97197e-05
3.82416e-07 -4.85482e-11 -4.93607e-05
-1.76798e-06 9.47133e-07 5.81539e-09
-1.74688e-06 -4.61517e-07 4.21515e-09
-3.69606e-07 5.84849e-07 1.07218e-09
-5.6544e-07 1.20869e-06 3.83237e-09
1.15732e-06 8.4973e-07 2.65915e-09
-6.83562e-07 -3.624e-07 7.45973e-10
-2.45729e-06 -3.24684e-07 7.13107e-09
1.96265e-06 1.35573e-07 5.337e-09
4.81684e-07 -1.43625e-06 4.6829e-09
5.79218e-06 1.08463e-07 1.52219e-07
-3.12308e-07 9.74561e-11 5.04854e-05
-6.88288e-07 6.93049e-07 2.09645e-09
-1.78721e-06 -3.45726e-07 4.14821e-09
5.99428e-07 1.28102e-06 3.28743e-09
-7.74945e-07 1.28947e-06 3.82726e-09
-8.22432e-07 1.95109e-06 6.15536e-09
-7.45495e-07 1.85738e-06 4.99258e-09
-2.08871e-06 7.44404e-07 5.53842e-09
1.53357e-06 -1.72014e-06 8.20999e-09
4.98123e-07 -2.55488e-06 9.60986e-09
4.63997e-06 -1.6814e-06 1.17462e-07
-1.87086e-06 1.98219e-06 1.43648e-08
-9.34754e-07 2.32848e-06 1.23512e-08
1.87556e-06 1.57075e-06 1.12859e-08
-8.11047e-07 2.39474e-06 1.18121e-08
3.22465e-07 1.3544e-06 5.76934e-09
-1.67841e-06 1.03494e-06 6.33451e-09
-1.14757e-06 3.91645e-07 3.7304e-09
7.25339e-07 8.32747e-08 3.26739e-10
-2.26626e-07 4.40731e-07 6.38824e-10
3.80079e-06 -5.0262e-06 1.13817e-07
1.6885e-10 1.16091e-06 -4.82533e-05
-3.77074e-06 6.39889e-06 3.62289e-07
-2.67814e-06 6.78913e-06 3.10404e-07
1.14384e-06 5.13509e-06 1.49032e-07
-3.64831e-06 6.81222e-06 2.12143e-07
-1.84251e-06 5.88141e-06 1.71455e-07
-3.03483e-06 5.91883e-06 1.73837e-07
-5.59722e-06 4.91631e-06 1.77921e-07
-4.03284e-06 4.90409e-06 1.3706e-07
-6.44344e-07 1.29036e-06 2.32955e-08
-2.7405e-06 -2.37316e-06 -2.0431e-08
6.67257e-09 -8.43661e-06 -2.18237e-05
2.82373e-06 -2.64595e-10 -2.97188e-05
6.5213e-07 -2.48813e-07 1.80279e-11
-4.57347e-07 -5.46999e-07 -9.85111e-10
6.9303e-07 3.64945e-09 -1.49996e-10
3.12336e-07 4.24418e-08 1.14376e-10
-7.40653e-07 -6.13103e-07 -1.34845e-09
-8.7336e-08 9.10945e-08 -5.87172e-11
1.87282e-07 -5.83402e-08 1.80731e-10
-2.49228e-07 4.56265e-07 -2.54402e-10
-9.95549e-07 -4.22102e-07 -4.53627e-09
-1.13809e-05 2.22576e-06 -8.24053e-07
6.07122e-07 -1.35718e-06 -4.86271e-09
8.6826e-07 -7.67001e-07 -2.31597e-09
-5.13424e-07 -2.63356e-07 -3.26476e-10
-1.00051e-06 9.73914e-07 -2.00896e-09
-1.4926e-06 2.37853e-08 -2.76527e-09
4.07925e-07 -1.67894e-07 -2.60877e-10
-1.29358e-07 2.4435e-07 -2.5397e-10
-4.57096e-07 -9.7333e-07 -1.73596e-09
-2.64844e-06 -6.10086e-07 -1.34082e-08
-8.4837e-06 4.0328e-07 -4.51771e-07
-9.87032e-11 -2.19766e-07 -5.18683e-05
2.13639e-06 -1.12283e-06 -9.89005e-09
2.99045e-07 -6.20393e-07 -1.3308e-09
5.1156e-07 -8.37229e-07 -1.35013e-09
-3.22013e-07 -8.94013e-07 -1.04831e-09
-5.18399e-07 -1.45022e-06 -3.40195e-09
-6.78432e-07 -1.31306e-06 -2.97743e-09
-4.97097e-07 -1.22906e-06 -2.89813e-09
-8.87575e-07 -4.27245e-07 -1.54626e-09
-2.26784e-06 -6.2185e-08 -1.17715e-08
-6.52716e-06 2.26408e-06 -2.2882e-07
-4.8772e-12 1.09604e-06 2.28987e-05
1.80688e-06 -1.0235e-06 -7.06763e-09
-7.29326e-07 -1.97584e-07 -6.65537e-10
-2.54581e-07 9.21205e-07 -1.23013e-09
-3.80252e-07 -2.42039e-08 -3.93659e-10
-1.74226e-06 1.70915e-07 -4.28285e-09
-5.70661e-07 -9.47701e-07 -1.86967e-09
-6.13692e-07 -7.66712e-07 -1.5256e-09
1.8458e-07 -2.4908e-07 7.36259e-11
-1.75313e-06 2.99512e-07 -8.51154e-09
-6.17673e-06 2.14702e-06 -2.03422e-07
-3.08323e-06 5.01589e-13 -2.73008e-05
3.22314e-06 -4.15503e-07 -1.14495e-08
-6.01028e-07 3.35061e-07 -4.4763e-10
1.16118e-06 1.08445e-06 -1.93168e-09
1.85721e-07 1.06336e-06 -1.29349e-09
-1.05003e-06 -3.85692e-07 -2.3588e-09
-6.98229e-07 -9.27223e-07 -2.03477e-09
-1.01168e-07 -1.55425e-06 -2.20907e-09
-4.70304e-08 1.09268e-07 -9.44993e-11
-1.46042e-06 -1.52609e-07 -5.44799e-09
-6.22525e-06 -7.53599e-08 -1.93688e-07
1.85692e-06 -1.50014e-06 -9.33285e-09
3.21748e-07 -7.637e-07 -1.79552e-09
8.69874e-07 -9.90113e-07 -3.44539e-09
2.56075e-06 -9.43006e-07 -7.35317e-09
-1.12243e-06 -9.67296e-07 -2.83922e-09
2.47602e-07 -2.00105e-06 -4.16562e-09
-2.49009e-07 -2.05288e-06 -3.17643e-09
-1.47593e-06 7.2454e-08 -4.04106e-09
-2.77022e-06 8.32705e-07 -1.73884e-08
-5.83456e-06 -9.36614e-07 -1.79382e-07
2.80882e-06 3.81393e-07 -8.38337e-09
3.46522e-07 1.63335e-07 -1.73499e-10
2.89901e-07 2.86557e-07 -1.61045e-10
1.96366e-06 1.00928e-06 -4.86799e-09
-1.75361e-06 -2.7733e-07 -3.47997e-09
3.21227e-07 1.16696e-06 -1.63688e-09
1.66899e-07 1.59016e-06 -3.92017e-09
-1.05211e-06 -2.56196e-07 -1.9673e-09
-2.10067e-06 1.91976e-07 -9.82677e-09
-5.31131e-06 -1.99704e-06 -1.6262e-07
1.98588e-06 -8.07792e-07 -7.53539e-09
3.96806e-07 -2.5742e-08 -3.01441e-10
5.60308e-07 -4.66974e-07 -1.07803e-09
1.09846e-06 1.05115e-06 -2.95577e-09
-1.32863e-06 1.84181e-07 -3.08962e-09
7.29325e-07 1.18631e-06 -2.93963e-09
1.93817e-07 7.1498e-08 -1.0212e-10
-1.05789e-06 2.3803e-07 -1.82901e-09
-9.36373e-07 8.57865e-07 -3.80983e-09
-4.51365e-06 -2.25077e-06 -1.21664e-07
2.43356e-06 3.73665e-07 -8.48396e-09
1.44937e-06 8.47171e-07 -3.19175e-09
-4.51786e-07 1.14733e-06 8.5822e-10
1.12061e-06 1.18468e-06 -2.01402e-09
-2.85488e-06 -9.02715e-07 -1.02467e-08
5.40955e-07 1.37068e-06 -7.85735e-10
2.62068e-07 2.03403e-06 -2.82333e-09
-1.64374e-06 1.32479e-06 -4.41509e-09
-1.89627e-06 1.98831e-06 -1.01374e-08
-4.33331e-06 3.76968e-07 -1.06136e-07
-2.07262e-11 1.21383e-07 5.12505e-05
1.7153e-06 -1.16559e-05 -8.45348e-07
2.64943e-06 -8.91202e-06 -4.92899e-07
4.89596e-09 -5.86515e-06 -1.96361e-07
8.59871e-07 -6.92326e-06 -2.27008e-07
-1.98467e-06 -5.57509e-06 -1.67087e-07
-1.47236e-06 -4.88965e-06 -1.44966e-07
1.96257e-06 -5.84928e-06 -1.81306e-07
-1.1962e-06 -4.52337e-06 -1.19333e-07
2.20196e-06 -4.80614e-06 -1.25807e-07
-1.19898e-07 -4.01492e-07 -6.25184e-09
-6.91179e-09 4.71154e-06 1.39332e-05
-3.5033e-07 8.8172e-11 5.08733e-05
-3.41252e-07 -7.80147e-07 2.46862e-10
4.96544e-07 -1.26984e-06 1.25525e-09
1.44456e-07 -1.02936e-06 8.21849e-10
-7.70984e-07 -1.08312e-06 1.12032e-09
1.14807e-07 -1.47064e-06 1.96621e-09
-1.28115e-06 -1.03759e-06 2.32229e-09
-9.59617e-07 -1.00247e-06 1.25621e-09
-1.07016e-06 -1.3946e-06 3.10236e-09
-1.56311e-06 6.02483e-07 -5.25649e-10
7.76817e-06 1.10123e-06 6.03516e-07
-1.72321e-07 -1.34973e-06 1.0142e-09
-1.85876e-07 -7.80834e-07 2.64403e-10
2.11786e-07 4.39561e-09 7.54227e-11
-5.69337e-07 7.07119e-07 1.35622e-09
-1.14106e-06 5.86031e-07 2.6077e-09
-2.1842e-07 1.14576e-06 2.64918e-09
-7.68173e-07 9.56256e-07 1.94741e-09
5.75381e-07 1.0981e-06 3.07888e-09
3.80048e-07 -4.60284e-07 1.37062e-09
7.16327e-06 -1.17063e-06 4.23807e-07
5.96959e-11 -1.65902e-07 5.16282e-05
2.69188e-07 -9.45986e-07 1.38202e-10
-4.92976e-07 1.16253e-06 4.01636e-09
8.9082e-08 5.94865e-07 6.09178e-10
2.83466e-08 1.06939e-06 1.50808e-09
-3.32072e-07 -7.68589e-07 1.30975e-09
2.66381e-07 -9.51097e-07 1.78649e-09
-7.32713e-07 -8.37416e-07 1.72775e-09
5.71435e-07 -6.87186e-08 8.50887e-10
9.14329e-08 8.22651e-08 2.64971e-10
3.99283e-06 2.10447e-06 1.39781e-07
3.38951e-07 -7.57581e-07 4.50602e-10
9.29303e-07 -5.33598e-07 1.53991e-09
7.65139e-08 -4.13439e-07 3.05078e-10
4.0019e-10 -2.79674e-07 -1.2718e-06
-4.65728e-07 -4.86648e-07 6.48658e-10
-3.84098e-07 -4.30983e-07 6.78354e-10
1.16578e-07 -1.00307e-06 1.80216e-09
-9.79368e-07 -6.94886e-07 1.74832e-09
6.96661e-08 -9.62898e-07 1.71637e-09
4.89689e-07 6.43567e-07 1.7205e-09
3.92663e-06 1.7061e-06 1.27718e-07
6.42257e-11 -1.76936e-06 -4.43555e-05
-3.52014e-07 5.77731e-08 -6.1408e-11
1.43719e-06 -5.56629e-07 2.2969e-09
6.53976e-07 -6.71235e-08 7.14019e-10
-2.18525e-07 -5.31639e-07 3.76213e-10
-6.06659e-07 -7.73029e-07 1.0334e-09
-7.54819e-08 -4.73911e-07 1.39352e-10
-8.23746e-08 1.6216e-07 -4.64314e-11
1.02957e-06 3.79015e-07 2.7697e-09
1.1046e-06 -3.75887e-07 4.16346e-09
4.44701e-06 4.97499e-07 1.42654e-07
1.83624e-11 2.03045e-07 -4.55514e-05
3.25886e-07 5.75686e-08 6.2282e-11
8.89341e-07 -4.32847e-07 1.06403e-09
7.42162e-07 4.2374e-07 8.51331e-10
-2.54839e-07 2.02726e-09 3.88052e-12
-5.25262e-07 -9.6064e-07 1.38846e-09
5.95487e-07 -9.79627e-07 1.74555e-09
5.33848e-07 4.14533e-07 1.27561e-09
3.73183e-07 -6.65223e-07 1.04585e-09
7.35231e-07 3.35372e-07 2.45343e-09
3.95702e-06 2.34982e-06 1.34498e-07
2.2471e-11 -4.16084e-07 -4.61495e-05
-1.07316e-07 5.09858e-12 -1.86231e-05
1.40028e-06 -2.99758e-07 2.52638e-09
7.87131e-07 8.03261e-07 1.48941e-09
5.31168e-07 9.36701e-08 4.84125e-10
5.16341e-07 -6.99947e-07 1.17002e-09
-7.71689e-07 -2.85254e-07 9.62841e-10
5.79781e-07 6.30116e-07 1.20258e-09
1.05508e-06 -1.41706e-07 1.63358e-09
-1.0775e-06 -6.5072e-08 1.17496e-09
5.42652e-07 8.52765e-07 1.71798e-09
3.69798e-06 -5.53332e-07 1.10751e-07
-2.31382e-11 -2.74037e-07 -1.97758e-06
5.00089e-07 2.70936e-07 6.9869e-10
-1.64114e-07 -1.00507e-07 4.90533e-11
1.09576e-07 -5.03224e-07 1.37158e-10
5.41333e-07 -6.39002e-08 2.93706e-10
4.24466e-07 -7.90546e-07 3.9488e-10
1.58928e-07 -1.31567e-06 3.05487e-09
1.1343e-06 -1.07374e-06 3.30174e-09
-7.13998e-07 9.73113e-07 2.07931e-09
3.89856e-07 9.01628e-07 1.75181e-09
4.51092e-06 1.78906e-06 1.37187e-07
1.30258e-06 -7.95829e-08 1.90416e-09
5.08913e-07 -2.95198e-07 -2.68067e-10
-1.14244e-06 -1.42396e-08 1.94966e-09
6.78056e-07 -3.74177e-07 3.65856e-10
7.62736e-07 7.83956e-08 4.08409e-10
8.20693e-07 6.89594e-07 3.56003e-09
4.45416e-07 1.2537e-06 3.82371e-09
-5.27842e-08 6.75545e-07 1.61666e-09
8.79091e-07 5.8845e-07 3.09972e-09
3.72069e-06 2.51453e-06 1.12165e-07
7.36015e-11 -2.69037e-07 -2.94765e-06
1.37326e-06 7.79874e-06 6.11207e-07
1.16036e-06 6.70762e-06 3.90165e-07
-9.97358e-07 4.53556e-06 1.63168e-07
2.09137e-06 4.81189e-06 1.71716e-07
1.39562e-06 4.44985e-06 1.4189e-07
1.7087e-06 3.86642e-06 1.25425e-07
2.56681e-06 4.54884e-06 1.45857e-07
2.06348e-06 3.66247e-06 1.10846e-07
2.16926e-07 4.79273e-06 1.33268e-07
2.91638e-06 2.98134e-06 1.50505e-07
-7.9098e-07 -6.00636e-07 1.96033e-09
-3.82594e-07 -8.46158e-07 9.81742e-10
-5.56087e-07 -7.99492e-08 7.74063e-10
-8.68219e-07 -3.43115e-08 1.0604e-09
-5.48119e-07 -3.51268e-07 5.88545e-10
-1.63533e-06 1.51384e-07 3.86321e-09
-1.34783e-06 2.37443e-07 2.00382e-09
-1.04823e-06 3.27995e-07 1.22021e-09
-8.50885e-07 1.21983e-06 1.30132e-09
3.35616e-06 2.32004e-06 2.82823e-07
-4.77027e-07 -1.62466e-06 3.80274e-09
-7.05073e-07 -1.09646e-06 2.80971e-09
-3.29364e-07 -1.23101e-06 2.23635e-09
-5.2591e-07 -2.23309e-07 8.31944e-10
-8.41136e-07 -3.87633e-07 9.0119e-10
-1.21971e-07 -6.36932e-07 6.92763e-10
-5.21074e-07 -3.26443e-07 7.44383e-10
-9.12114e-07 -3.40523e-07 9.00392e-10
-1.25853e-07 1.97572e-07 -6.31068e-11
3.96363e-06 1.00708e-06 2.43157e-07
7.57123e-11 -1.08891e-06 -5.31393e-05
2.33315e-07 -1.53218e-06 2.92732e-09
-1.28264e-07 -5.31412e-07 6.6275e-10
-1.77157e-07 -8.51714e-07 1.55281e-09
-5.27292e-07 -9.92901e-07 2.5413e-09
-3.81033e-07 -3.51e-07 6.03017e-10
-3.16959e-07 -1.57575e-07 2.71034e-10
-5.90799e-07 -6.03786e-08 3.75216e-10
-9.21354e-07 -4.00935e-07 1.26917e-09
-7.0511e-07 5.72478e-08 -3.67905e-10
1.28053e-06 2.85403e-06 5.71117e-08
-8.53176e-11 5.21406e-07 5.29515e-05
5.90537e-07 -1.21625e-06 2.49256e-09
-5.29594e-07 -5.54827e-07 8.67944e-10
-4.01119e-07 8.04314e-08 5.39951e-10
-5.07026e-07 -1.37224e-07 5.66536e-10
-5.96906e-07 -5.70314e-08 5.85567e-10
-4.02406e-07 -1.11736e-07 2.42544e-10
-5.69663e-07 3.95831e-09 3.39507e-10
-3.65884e-07 -1.68234e-07 2.25683e-10
-6.4643e-07 6.33597e-07 1.23444e-10
1.19432e-06 2.22691e-06 4.4985e-08
6.5861e-07 -1.80491e-07 1.07906e-09
-6.72884e-08 -3.29558e-07 2.60356e-10
2.40957e-07 4.84642e-07 3.29166e-10
-1.24057e-08 3.2208e-07 3.87647e-10
-2.2937e-07 9.73082e-08 1.52831e-10
-3.47208e-07 -1.50213e-08 2.17127e-10
1.94536e-06 1.69394e-09 5.56517e-06
1.27136e-07 -1.85891e-08 7.48147e-11
-7.91705e-07 -1.72002e-08 7.08811e-10
-3.65601e-07 5.01986e-07 1.57539e-10
1.49869e-06 2.40851e-06 5.80144e-08
6.95646e-07 -6.34535e-07 1.54008e-09
4.69549e-09 -6.57787e-07 8.06447e-10
1.17418e-07 -6.60731e-07 1.17587e-09
5.82926e-07 -3.45243e-07 7.54338e-10
-2.91688e-07 -4.14184e-07 1.22332e-10
2.65256e-07 -4.93438e-07 7.3668e-11
1.94807e-09 -2.23006e-07 -9.98549e-11
-5.34923e-07 8.71653e-07 1.86312e-09
-6.99031e-07 1.29052e-06 2.24441e-09
1.12904e-06 2.98859e-06 5.72308e-08
1.4785e-06 -2.70079e-07 2.91816e-09
8.36384e-07 -1.23668e-08 1.27971e-09
-2.85753e-07 -8.61649e-07 1.38114e-09
1.13813e-06 3.465e-08 1.57168e-09
-5.79155e-07 2.37425e-08 3.77525e-10
1.21282e-07 3.52057e-07 2.24232e-10
6.02116e-07 8.44366e-07 1.91052e-09
-1.28525e-07 3.88427e-08 -5.40679e-11
-6.17003e-07 1.28359e-06 1.73765e-09
1.68429e-06 -5.66044e-07 4.92182e-08
4.9523e-07 -1.01091e-06 1.90601e-09
-1.73827e-07 -5.33886e-07 6.9223e-10
-5.93933e-08 -8.64852e-07 1.13206e-09
7.22992e-07 -4.06392e-07 1.02098e-09
3.35514e-09 -5.94319e-07 9.68528e-11
9.2798e-07 -1.03726e-07 9.99151e-10
4.75757e-07 4.40936e-07 1.14208e-09
1.7402e-07 1.01023e-06 2.31321e-09
-2.93434e-07 1.92024e-06 6.13185e-09
2.7114e-06 1.72979e-06 8.64418e-08
-6.68881e-11 7.37484e-07 -1.34054e-05
1.7579e-06 -5.66006e-07 4.74845e-09
9.46511e-07 -3.26522e-07 1.03418e-09
-4.26508e-07 -2.35729e-08 1.53784e-10
9.00987e-07 -1.31597e-07 1.72871e-09
6.53943e-08 -3.52827e-08 -1.06795e-11
4.06149e-07 5.90936e-07 2.6171e-09
2.09217e-07 1.56427e-06 6.1386e-09
1.12703e-08 1.1909e-06 4.62599e-09
4.91743e-07 1.10972e-06 4.76295e-09
2.66222e-06 2.92409e-06 9.91719e-08
2.8065e-10 7.52252e-07 -4.3426e-05
2.07232e-06 3.37712e-06 2.8417e-07
3.08917e-06 3.30848e-06 2.14197e-07
1.27138e-06 2.08698e-06 7.605e-08
1.63722e-06 1.67908e-06 6.1903e-08
2.21872e-06 1.67938e-06 5.74243e-08
1.95341e-06 1.67624e-06 6.17474e-08
3.53457e-06 2.24208e-06 8.9882e-08
1.92041e-06 2.10523e-06 7.05823e-08
2.03899e-06 3.37708e-06 1.07203e-07
3.38689e-06 3.33409e-06 2.5126e-07
7.45211e-10 4.51325e-07 -2.57883e-05
8.36455e-07 7.97991e-07 -4.04071e-09
7.99551e-07 8.60689e-07 -3.28622e-09
4.70613e-07 2.21553e-07 -1.25363e-09
5.85772e-07 2.96507e-07 -1.18328e-09
7.66968e-07 4.74553e-07 -1.68044e-09
8.16931e-07 -1.6668e-07 -1.81447e-09
1.17346e-06 -2.95302e-07 -3.21729e-09
8.73156e-07 -5.42346e-07 -2.52311e-09
6.28748e-07 -1.15613e-06 -3.07587e-09
9.68173e-09 -1.49325e-06 -1.16785e-08
6.30164e-07 9.12815e-07 -2.76227e-09
8.22985e-07 5.13526e-07 -2.4708e-09
3.4704e-07 1.0145e-06 -2.55696e-09
5.29563e-08 7.98663e-07 -1.39288e-09
3.50511e-07 4.91002e-07 -6.86884e-10
4.10044e-07 4.87325e-07 -9.57713e-10
3.07979e-07 1.59394e-07 -3.20821e-10
8.00693e-07 -8.63988e-08 -8.38556e-10
4.13481e-07 -2.14215e-07 2.8995e-11
-9.25713e-07 -1.79905e-06 -6.78983e-08
4.88724e-11 6.76492e-07 -5.19677e-05
5.70914e-07 1.15229e-06 -3.45248e-09
-7.25575e-08 5.39662e-07 -7.88427e-10
4.33598e-07 3.07416e-07 -7.93138e-10
4.1338e-07 1.57278e-07 -4.69404e-10
1.67095e-07 -2.65646e-07 -2.18515e-10
1.60435e-07 -2.32611e-07 -1.86889e-10
4.20957e-07 -1.94882e-07 -3.88026e-10
-5.12152e-06 -1.04861e-08 -3.62164e-06
6.32889e-07 7.59475e-08 -5.16886e-10
4.01457e-07 -4.27763e-07 5.47093e-11
4.52327e-07 -1.97563e-06 2.69014e-09
2.33041e-07 8.78124e-07 -1.60411e-09
-1.18385e-08 7.04264e-07 -1.02799e-09
1.73215e-07 4.60415e-07 -6.06105e-10
1.91032e-07 4.23488e-08 -1.36645e-10
7.38938e-08 -1.46821e-07 8.88063e-11
2.70803e-07 -1.67458e-07 -1.63136e-10
2.246e-07 -1.09373e-07 -1.19922e-10
3.82524e-07 -2.23243e-07 -3.65364e-10
1.24578e-07 -5.04737e-07 -2.89653e-10
7.41848e-07 -1.51382e-06 1.38725e-08
-1.94732e-07 1.037e-07 -1.49584e-10
-1.30064e-07 1.33836e-07 -6.68645e-11
2.5103e-07 1.5205e-07 -2.43236e-10
3.88168e-08 2.15345e-07 -7.75886e-11
-2.21007e-07 -3.08625e-07 -2.91878e-10
-6.85008e-08 -2.53329e-07 -1.58078e-10
-6.02766e-08 -2.58817e-07 -2.09702e-10
4.50906e-07 6.45561e-08 -2.65692e-10
3.08386e-07 -5.1271e-07 -2.88682e-10
6.51916e-07 -2.04943e-06 3.23597e-09
-2.15265e-07 5.42926e-07 -9.35293e-10
1.77387e-08 4.41184e-07 -7.13451e-10
3.4947e-08 4.14268e-07 -3.70003e-10
-1.08236e-08 1.53316e-07 -1.15432e-10
-5.93077e-08 5.71527e-08 -1.85373e-11
3.45597e-08 -1.78618e-07 -1.9291e-10
-3.06817e-09 -1.11096e-07 -1.34104e-10
4.65593e-07 -2.45022e-07 -5.91142e-10
1.20842e-07 -1.10623e-06 -2.65659e-09
1.05665e-06 -2.66273e-06 -1.06028e-09
-1.05388e-07 -1.2497e-11 4.5352e-05
4.23313e-08 6.45954e-07 -9.62009e-10
2.26955e-07 6.62943e-07 -1.05916e-09
1.50087e-07 6.78151e-07 -1.2095e-09
-1.73018e-07 2.46428e-07 -1.75961e-10
-2.79528e-07 7.5708e-08 -2.84103e-10
-8.73694e-08 -4.02139e-08 -3.02589e-11
-3.33399e-07 -6.67974e-07 -1.36237e-09
-2.8374e-07 -1.37535e-07 -6.16703e-10
4.07153e-07 -9.03987e-07 -1.36348e-09
9.88376e-08 -5.16612e-07 4.33048e-10
-1.23803e-06 4.21558e-10 -4.72163e-05
-7.15004e-08 1.05823e-06 -2.34831e-09
-1.31431e-08 5.20707e-07 -1.01147e-09
1.97869e-07 8.20084e-07 -1.66909e-09
-3.25898e-07 9.57129e-07 -2.18549e-09
-4.81341e-07 7.03065e-07 -1.39119e-09
-8.0429e-07 9.84883e-08 -1.05241e-09
4.83382e-08 -6.6241e-07 -1.75718e-09
-5.59017e-07 -8.42204e-07 -3.28839e-09
2.44462e-07 -1.54566e-06 -5.57637e-09
-3.52198e-07 -1.82478e-06 -1.87175e-08
1.16684e-10 6.70722e-07 3.41558e-05
-8.20281e-07 1.14546e-06 -2.43713e-09
-4.44246e-07 9.56417e-07 -1.08182e-09
-3.23132e-07 9.04677e-07 -8.02839e-10
-2.12352e-07 7.09459e-07 -1.81297e-10
-3.23494e-07 2.00573e-07 -4.97211e-10
-3.94489e-07 4.3561e-07 -4.76899e-11
-2.32365e-07 -3.63804e-08 -4.20192e-10
-4.71837e-07 -9.98891e-08 -1.25249e-09
-6.9392e-07 -2.70027e-07 -2.5714e-09
-1.06754e-06 -2.61217e-06 -5.75028e-08
6.95516e-11 3.01121e-07 6.74638e-08
-1.04394e-06 3.41061e-08 -4.47767e-09
-2.22827e-06 -6.76447e-07 -5.51691e-08
-1.5646e-06 -1.25881e-07 -1.11748e-08
-9.27262e-07 5.13813e-07 1.02111e-08
-2.50175e-06 5.96444e-07 3.05031e-10
-2.04776e-06 4.80862e-07 -4.40126e-09
-2.89654e-06 -1.80079e-07 -2.86167e-08
-1.88016e-06 -1.96365e-07 -2.03248e-08
-2.03516e-06 -1.73323e-06 -6.37305e-08
-2.29172e-06 -2.24022e-06 -2.03408e-07
-9.66738e-09 -3.53661e-06 -8.48637e-06
-5.52788e-07 -7.19329e-07 3.66493e-09
-5.12559e-07 -6.96573e-07 2.76874e-09
-4.81936e-08 -3.30583e-07 6.3525e-10
-2.50398e-07 -2.83761e-07 8.3097e-10
-5.80033e-07 -5.32601e-07 1.81301e-09
-2.80225e-07 2.27259e-09 5.65177e-10
-5.5444e-07 9.73646e-08 1.39997e-09
-5.40677e-07 1.34572e-07 1.20892e-09
-6.38316e-07 6.16715e-07 2.73767e-09
-2.05328e-06 1.10497e-06 -1.48367e-07
-4.69081e-07 -6.11152e-07 2.57184e-09
-4.31596e-07 -2.82592e-07 1.4761e-09
-2.35904e-07 -3.11666e-07 8.09907e-10
-2.2265e-07 -2.3682e-07 5.43536e-10
-3.31898e-07 -1.45767e-07 4.24145e-10
-3.21021e-07 -2.75207e-08 3.2627e-10
-2.49946e-07 2.20667e-07 4.13032e-10
-3.89307e-07 1.54854e-07 4.78052e-10
-7.22236e-07 -8.87467e-08 4.85605e-10
-7.94392e-07 1.20861e-06 -3.77645e-08
1.75731e-06 1.55638e-09 3.43019e-05
-3.32081e-07 -7.4139e-07 2.55679e-09
5.21551e-08 -4.0255e-07 5.5827e-10
-3.06454e-07 -1.20567e-07 5.1988e-10
-2.82819e-07 1.23687e-07 2.95991e-10
-9.60631e-08 7.58043e-08 7.01429e-11
-8.36167e-08 -4.44806e-08 2.59809e-11
-3.49989e-07 -4.12023e-09 4.45764e-10
-2.76304e-07 1.81123e-08 1.32487e-10
-5.52115e-07 3.81187e-07 4.53097e-10