<?xml version="1.0"?>
<VTKFile type="UnstructuredGrid" version="0.1" byte_order="LittleEndian" compressor="vtkZLibDataCompressor">
 <UnstructuredGrid GhostLevel="0">
  <Piece NumberOfPoints="1052" NumberOfCells="1052">
   <PointData>
    <DataArray type="Float64" Name="Elongation" NumberOfComponents="3"/>
0.00126518 -0.000904355 0.0020077
-0.000763759 -4.56896e-05 -0.000492045
0.000100072 -7.77058e-05 -0.000221235
3.7015e-05 -2.60961e-05 -1.36307e-05
3.13272e-06 -2.61773e-05 -2.39583e-05
-3.16611e-05 3.58337e-05 -9.69639e-06
-1.61155e-05 -0.00060962 0.00042803
0.000545169 -0.000543478 0.000344265
0.000333066 -6.76962e-05 -0.000254262
-1.15253e-05 -8.16375e-06 1.53508e-05
7.2616e-05 -4.83699e-05 -9.21155e-05
-9.81327e-05 5.88841e-05 9.15468e-05
6.20662e-05 0.000185011 9.60892e-05
-2.84854e-05 -9.05855e-06 1.71381e-05
-2.40752e-05 0.000107737 -0.000126989
-0.000126469 -5.89416e-06 8.17692e-05
8.97527e-05 0.000209414 -0.000150647
3.75178e-05 3.3686e-05 -3.21509e-05
-4.10206e-06 4.61293e-05 2.9364e-05
1.19666e-05 1.49149e-05 4.71351e-06
-7.75481e-07 -4.83226e-07 -2.20111e-07
1.12473e-05 -3.66392e-05 8.92895e-06
1.93266e-05 4.59009e-05 2.52351e-05
-1.50328e-05 6.28913e-06 9.87013e-05
-0.000234295 -0.000218901 0.00145251
-1.77331e-05 -1.61333e-05 4.05948e-05
-1.4201e-05 3.49458e-06 -2.13025e-05
-1.81357e-05 -5.84389e-05 7.82253e-05
-0.000113557 3.64109e-05 0.00014225
2.84153e-05 5.55298e-05 -9.52658e-05
7.40459e-07 -6.63449e-07 -1.60053e-06
-0.000143756 0.000146979 0.000189197
-2.21974e-05 9.53562e-06 -9.24398e-06
2.42514e-05 1.95399e-05 1.56251e-05
-0.000175465 -8.32759e-06 8.16087e-05
-3.47278e-05 -1.5931e-05 1.66119e-05
-0.000552031 0.000204619 -0.000376448
-1.38492e-06 -1.16274e-06 -1.61667e-05
8.9213e-05 0.000156182 7.97499e-05
-4.2406e-05 3.21638e-05 -7.4313e-05
2.7487e-05 8.27252e-06 -4.45822e-05
7.39801e-05 3.15093e-05 5.32923e-05
-0.000300142 -0.000213259 0.000445327
-0.000302318 -0.000439568 0.000172352
0.000106416 0.000105081 0.00017785
-0.000247542 -0.000355585 9.85961e-05
-3.27303e-05 3.80413e-05 4.40996e-07
1.91139e-05 3.04132e-06 9.29127e-06
3.02992e-05 -0.000218635 0.00010788
5.26209e-06 2.25565e-05 2.46239e-05
0.000445378 -0.00143763 -0.00168237
-0.000715998 -0.000452816 -0.000986529
0.000176837 1.7824e-05 -7.61619e-05
2.20279e-05 -2.85621e-06 1.66691e-05
-8.65308e-06 4.21157e-05 -2.21457e-05
-9.65691e-06 1.70248e-05 -1.2494e-05
2.36793e-05 4.09862e-06 8.64131e-06
-2.42214e-05 1.26288e-06 -6.71175e-06
-4.24654e-05 -1.67361e-05 -1.73143e-05
1.76004e-05 2.13688e-06 -8.11614e-06
1.40275e-06 1.47244e-05 8.70942e-06
1.77813e-05 -2.93908e-05 1.59017e-05
-7.51091e-05 2.53483e-06 4.67088e-05
8.37044e-06 -5.15505e-05 -4.17466e-05
-2.60459e-06 -7.13768e-07 5.19789e-06
-0.000204044 -0.000272534 -0.000710746
-0.000149129 -7.76382e-05 9.54371e-05
-0.000145598 5.91802e-06 7.13227e-05
3.6925e-05 -2.176e-05 8.10499e-06
-2.94013e-06 1.68687e-05 -9.75773e-08
3.64118e-05 1.79428e-05 4.93089e-07
-7.4831e-06 3.62095e-05 2.41996e-05
1.29986e-05 6.41863e-05 9.01306e-06
-2.12808e-06 4.29196e-05 3.91893e-05
-0.000223597 -0.000233012 -0.00296029
-0.000110754 0.000186541 -0.00218434
-0.000102014 -6.91601e-05 -0.000386233
1.8315e-06 1.41835e-06 4.13163e-06
-5.23933e-06 1.45377e-05 -1.64262e-05
-8.91331e-05 8.52134e-06 -0.000107586
3.25979e-05 4.31292e-05 7.67436e-05
8.45561e-05 2.42595e-05 -5.59057e-05
6.18202e-05 3.2453e-05 4.36407e-05
-8.28478e-05 3.06535e-05 8.29773e-05
3.22025e-05 3.3772e-06 3.45153e-05
1.56384e-05 1.69417e-06 -2.03812e-05
4.98712e-06 -2.10054e-06 4.3053e-06
-0.000215091 -0.000150884 -0.000374901
2.15352e-05 -1.6336e-05 2.50072e-05
-8.64619e-05 -0.000754962 -0.000368245
1.11792e-06 -1.94336e-06 8.58268e-07
-1.42047e-05 -5.38975e-05 3.50856e-05
-3.64407e-06 -5.72389e-05 3.89042e-05
9.25999e-05 -0.000752112 -0.000541333
2.8473e-05 1.89943e-06 0.000363455
-3.89743e-05 -9.39576e-06 2.24588e-05
-9.87484e-05 0.000885736 -0.000693291
0.000659856 0.000954324 -0.000869902
-0.000145725 3.21364e-06 8.60934e-06
-2.82465e-05 -6.31796e-05 -4.24716e-05
-0.000433469 0.000285208 0.00119386
0.000229845 0.000167783 0.000387505
0.000150672 -0.000126464 -0.000441221
1.09585e-05 -1.74058e-05 2.5557e-06
1.26628e-06 6.8892e-07 -0.000101207
1.75353e-05 -2.09797e-05 0.000872668
-0.000705075 0.00129708 -0.00107861
0.000132786 -0.000441899 0.00136151
-0.000653797 0.00089117 0.00065451
3.76711e-05 -2.08483e-05 4.94068e-06
-3.15618e-05 -0.000123151 -0.00023274
-0.000157446 7.31152e-05 0.0001788
-0.000901572 0.000637013 -0.00109945
0.000414592 -0.000239045 -0.00100158
-0.000458241 6.85526e-05 -0.000910232
-9.19551e-05 -0.000169768 2.99973e-05
1.30688e-05 1.40129e-05 1.38132e-05
-0.000173095 0.00104964 4.71056e-06
-9.18464e-05 1.23214e-05 -5.60213e-07
1.01573e-05 1.36433e-05 -5.34013e-05
2.52026e-05 -1.07238e-05 1.55895e-05
1.50803e-06 -6.56101e-06 1.08863e-05
-0.000627595 8.73628e-05 0.000239643
-0.000397317 -0.000760193 0.000380429
2.37804e-06 -1.1634e-05 5.49803e-05
1.46644e-05 3.2823e-06 -2.20456e-05
2.61833e-05 -3.18789e-05 -8.96633e-06
6.8433e-06 4.62248e-06 -6.28107e-06
8.8639e-06 -2.55729e-05 -2.27237e-05
2.55752e-05 1.32296e-05 1.24968e-06
6.58311e-06 -0.00069519 -7.81898e-05
-0.000133646 -0.000129863 -0.00011448
-1.41049e-05 1.09457e-06 -2.04497e-05
-1.25431e-06 5.07889e-05 3.13166e-06
-3.6379e-06 5.87249e-06 -6.9161e-07
-3.41601e-05 -3.4017e-05 0.000104083
0.000169065 9.30806e-05 -5.02271e-05
-0.000132665 0.000141567 4.52335e-05
4.87072e-05 -7.26448e-05 -5.8997e-05
-9.54414e-07 4.3878e-05 -0.000195649
-1.66974e-05 -9.39641e-06 5.16078e-06
-2.62348e-05 6.1192e-06 3.28544e-05
0.000122317 9.03539e-05 -9.22361e-05
-1.44828e-05 5.96906e-06 -6.66226e-06
0.000118403 -1.70652e-05 -8.79639e-05
0.000101139 -1.84073e-05 -5.79525e-05
-6.89664e-05 7.22585e-06 7.05798e-05
-4.92494e-05 1.05475e-05 -6.37254e-05
-0.000207033 -0.000145974 0.000475483
1.31368e-06 1.91774e-05 2.14082e-05
-1.16653e-05 -1.70765e-05 6.80148e-06
-2.72673e-05 -1.62519e-05 4.02929e-05
0.000274126 -0.000848532 -0.00182944
0.000387047 3.35589e-05 0.00048767
5.97703e-05 5.03667e-05 0.000137922
0.000688834 -0.00022411 -0.000715121
0.000105707 0.000141327 -6.28377e-05
2.86379e-05 5.89984e-05 0.00012233
-0.000147141 -5.14115e-05 -8.63612e-05
6.71223e-06 -1.98072e-05 7.32328e-06
8.11678e-05 7.63012e-06 2.376e-05
7.0341e-05 -1.83612e-05 5.47701e-05
-7.76996e-06 7.2572e-05 5.56074e-05
-0.000127819 -0.000187512 5.41824e-06
4.58466e-05 -6.20676e-05 -8.89642e-07
-8.09657e-05 -9.0019e-05 -4.60527e-05
-7.47634e-06 -1.11779e-05 -1.72874e-06
-3.63884e-06 -3.10274e-06 -1.95403e-05
0.000209317 2.41039e-05 -0.000303026
-4.72485e-05 -0.000298873 0.000509013
1.5614e-05 2.08534e-05 6.59498e-05
2.19211e-05 -2.71294e-05 -2.29158e-05
-3.00269e-05 2.57448e-06 -2.0802e-05
-4.96242e-07 5.8161e-07 7.23905e-07
-0.000139799 -6.56032e-05 -0.000138667
7.19501e-06 -6.24856e-07 -2.43621e-06
2.16206e-06 -5.90731e-05 2.49499e-05
-1.96093e-05 5.75552e-06 1.94354e-05
-0.00072513 -0.00064888 0.00121664
-0.000326729 -0.000264871 7.57607e-05
-5.45565e-06 7.12199e-05 -3.76645e-05
-1.15852e-05 -5.55269e-06 1.7632e-05
-1.64759e-05 -4.89708e-05 3.18295e-05
-4.8756e-05 1.7335e-05 4.65219e-05
1.53156e-05 -6.828e-05 -4.85514e-05
-6.97258e-06 3.56551e-06 -1.31409e-06
2.01066e-05 9.39425e-05 7.34295e-05
0.000540998 -0.000102036 3.51906e-05
9.82252e-06 0.000453047 -0.000266116
2.12457e-05 3.3536e-05 4.33511e-06
1.60093e-05 -1.55159e-05 2.69536e-06
-2.97385e-05 4.76643e-05 3.83731e-05
-1.98228e-06 7.95688e-05 7.55525e-06
0.00052826 -2.96555e-05 -0.00188607
-0.000147946 -0.000277287 -0.000857287
3.9457e-06 1.171e-05 6.6898e-05
0.000113256 3.84639e-05 -3.70568e-05
0.000121262 -7.01173e-05 7.72404e-05
7.70762e-05 -6.30962e-05 4.91757e-05
-3.96575e-05 1.72528e-05 1.42535e-05
-7.80249e-05 -1.80491e-05 5.5849e-05
-2.93368e-06 8.21673e-06 7.52811e-06
3.08268e-05 -1.83573e-05 -2.87114e-05
5.83469e-06 1.48294e-05 5.92314e-06
1.833e-05 -1.45782e-07 9.41562e-05
3.08882e-05 4.7317e-05 -3.57701e-05
1.8254e-07 5.32825e-08 3.55682e-06
3.01398e-07 -1.97416e-07 4.28327e-07
-3.03121e-05 -0.00018671 0.000295483
3.05914e-06 3.27334e-05 5.28431e-05
-3.20774e-05 -0.000273542 0.00154233
0.000106926 -0.000439577 0.00140762
-0.00090305 -0.000742995 -0.000113162
0.000165285 0.000242584 0.000777818
0.000504084 -0.000706779 -0.000401206
0.000123684 8.22024e-05 0.000161687
0.00122798 -0.000377526 -0.00172999
-0.000163674 0.000126842 0.00014338
-0.000110094 0.000552889 -0.00120178
-4.63518e-07 7.40529e-06 2.75526e-06
-2.04145e-05 -6.26738e-06 -3.47316e-05
3.31877e-05 0.000107867 -8.8578e-05
1.10192e-05 8.51414e-06 -1.90039e-05
-1.83901e-06 1.31937e-05 1.39468e-05
1.12908e-05 7.97853e-06 -6.182e-06
2.74914e-05 -4.1443e-05 7.99983e-05
-4.29577e-05 1.47821e-05 1.18297e-06
-0.000194427 0.00033279 -0.000333877
-3.59827e-05 8.83425e-06 1.5509e-05
-0.000253316 -0.00076328 -0.00123064
-1.93502e-05 5.52856e-07 3.47123e-05
0.000132388 7.94131e-05 2.05097e-05
8.63291e-06 -6.39035e-06 -1.46527e-05
4.66135e-06 -2.10951e-06 -7.88512e-06
-2.8154e-05 -3.86701e-05 3.20526e-08
0.000106666 -4.61786e-05 -4.30187e-06
-7.16821e-06 -2.03159e-06 -4.4127e-06
0.000128818 4.7105e-05 3.4705e-05
-2.31442e-05 -3.23314e-05 -7.45455e-05
9.35507e-05 5.7564e-06 7.7604e-05
2.31802e-06 6.28961e-06 9.09638e-06
-4.55679e-07 -1.64569e-06 1.23135e-07
-4.62916e-05 3.40651e-06 7.76094e-05
-0.000233229 -0.000706561 0.000357856
3.86699e-05 -5.53611e-06 4.53979e-05
3.16845e-05 1.48815e-05 2.81673e-06
-1.65046e-05 -6.97311e-06 1.28355e-07
0.000145245 0.000251681 2.14788e-05
1.80404e-05 8.18818e-07 4.90328e-06
-8.77179e-06 2.30446e-05 2.88212e-05
4.3523e-05 1.50972e-06 5.53797e-05
3.5888e-05 6.42886e-05 -7.67418e-05
-1.29336e-05 -1.22424e-05 -2.56364e-06
-2.41104e-06 1.68262e-06 1.10381e-06
-2.86649e-05 -3.18778e-05 -5.25362e-06
-1.06438e-05 1.47481e-05 4.66164e-06
-3.04068e-06 -1.35686e-06 -9.83136e-08
9.93773e-05 0.000243205 -0.000220933
1.64432e-05 1.19358e-05 1.38171e-05
-9.2681e-05 -4.59057e-05 7.64866e-06
2.07881e-05 1.93179e-05 -2.20701e-06
4.99503e-05 3.01456e-05 3.27301e-05
-1.71354e-05 4.82655e-06 7.43392e-05
-0.000205812 -0.000251326 -3.82273e-05
0.000275347 0.000397166 -0.000694812
0.000442888 -0.000373914 -0.000850189
1.97695e-07 -6.60269e-05 -3.71107e-06
2.44628e-05 -8.31448e-05 -7.57835e-05
-4.38576e-05 0.000262234 -0.000189741
2.63901e-05 3.02614e-05 -2.30343e-05
-3.8434e-06 -8.70428e-06 6.12473e-06
-2.44237e-05 -9.43547e-06 3.48677e-05
-1.61817e-05 2.03853e-05 4.73323e-05
2.45115e-06 -4.87636e-06 2.35305e-06
-2.25718e-06 -3.69912e-06 -0.00026566
-2.56489e-05 1.14183e-05 4.25137e-05
-0.000443114 -0.000567617 -0.0018069
0.000179755 0.000479624 0.00144739
-0.00108099 -0.00072888 -0.00124338
-0.000552787 -0.000424177 -0.00310157
0.000334305 -0.000720915 0.00130761
1.92973e-05 -2.32945e-05 1.04982e-05
-9.09989e-06 0.00122654 -0.00181108
-2.82907e-05 5.13228e-05 -3.49198e-05
-5.86986e-06 -3.47446e-05 7.97415e-06
-2.66664e-05 -1.40045e-05 2.52827e-06
0.000208755 7.84503e-05 -0.000652429
-2.27587e-05 1.34493e-06 9.60572e-06
1.93536e-05 1.2103e-05 -4.98871e-06
-0.000219974 8.37585e-06 -0.000223891
-0.0010819 0.000186497 -0.00081534
-8.03791e-06 -4.34138e-05 -5.84435e-05
0.000155101 0.000464275 0.000441483
3.14905e-05 3.99458e-06 -2.85932e-05
8.52301e-06 5.93924e-06 -2.62498e-05
5.13317e-05 2.45259e-05 7.20309e-06
0.000548863 3.22731e-06 0.000688202
-1.57276e-05 6.42347e-05 1.58707e-05
-5.22982e-05 0.000120357 6.61181e-05
0.000370499 1.5883e-05 -0.000570545
-2.26009e-05 -1.02596e-05 -4.65271e-06
0.000707849 0.000156267 0.000370077
-9.89775e-06 -1.52358e-06 -2.86665e-06
0.000483056 -0.00024201 0.000251033
8.15178e-05 0.000144111 -4.08809e-05
-1.90433e-05 -8.95627e-06 5.06263e-06
0.000249997 0.000167477 4.70277e-05
-0.000753351 0.000189309 -0.000400934
5.36576e-05 7.49788e-05 0.000139967
-8.13101e-06 7.39477e-06 -4.41178e-06
3.79765e-05 -8.85796e-06 -4.20473e-05
0.000481146 0.000145995 -0.000330646
0.000470585 0.000709039 6.11721e-06
0.000143223 6.84658e-05 2.89466e-06
0.000508335 0.000905527 -6.73038e-05
0.00120773 0.000598833 -0.0023116
-1.56219e-05 -9.70323e-05 -7.55037e-05
0.000155715 -3.16477e-05 8.35478e-05
-0.00111183 -0.00253623 0.00136999
-2.65397e-05 1.54701e-06 5.95664e-05
-1.33246e-06 -1.2129e-05 5.47507e-05
1.22343e-05 8.70609e-06 1.65552e-05
1.27755e-06 3.35534e-05 -1.1817e-06
-0.000156906 -0.000296218 -0.000440206
-2.08392e-06 2.03022e-05 -1.13864e-05
6.78469e-05 -6.48102e-05 -0.000101559
2.77371e-08 1.24194e-06 -2.58188e-06
-4.70912e-06 1.44909e-06 2.08297e-06
7.78572e-05 1.78831e-05 0.000400846
0.000105188 -0.000611297 0.000166067
-7.07005e-06 -9.62618e-05 8.53417e-05
0.000198475 -0.00026633 0.000375203
-1.92567e-05 1.9715e-07 3.56695e-06
7.18649e-06 -8.29639e-06 -1.90077e-05
-2.06443e-05 9.61942e-06 -0.000143838
-0.000448999 3.21365e-05 0.000687214
9.05095e-05 4.28538e-05 9.70683e-05
3.23614e-05 3.36662e-06 -3.40067e-05
3.46893e-05 -0.000219424 -0.000252516
-3.79687e-06 -2.45509e-05 -3.17774e-05
-4.72227e-05 -3.61627e-05 3.47481e-05
-0.000213648 -0.000536421 0.000491303
-9.10456e-06 -6.35087e-06 -1.15369e-05
-7.57234e-05 3.34778e-05 -3.23893e-05
0.00122412 -7.67416e-05 -0.0010979
-8.36149e-06 9.78047e-06 -2.02087e-05
-7.09346e-06 2.352e-05 3.18109e-05
4.55773e-05 -9.64464e-05 -0.000276358
-4.77225e-05 -0.000275783 0.000437746
0.000220307 2.61419e-05 9.87974e-05
8.42871e-07 3.88568e-07 -9.87516e-07
2.1722e-06 -1.71582e-06 3.73769e-06
1.69551e-06 -4.90446e-06 9.98046e-06
0.000574598 0.000176443 -0.00034559
4.35669e-05 -0.000141161 0.000282843
-8.11103e-06 -7.92837e-06 6.359e-06
0.00022006 -0.000413823 0.00039817
-4.39409e-05 -0.000355153 -0.000344958
1.14376e-05 -2.88175e-05 -3.00865e-05
5.14327e-06 -3.3259e-06 7.07427e-06
-0.000276273 0.00014636 -7.34488e-05
-1.3152e-05 -1.7808e-06 -1.05575e-05
-1.47444e-07 2.60177e-06 2.93748e-05
-6.19693e-05 9.11937e-05 6.79368e-05
-0.000272807 -0.000423581 0.000696265
6.43984e-05 -8.81853e-06 -3.23843e-05
-0.000309313 0.00027071 -0.000136868
-1.82807e-05 4.42108e-06 1.50074e-05
1.75162e-05 -1.03863e-06 1.87112e-05
-0.000318517 -0.000235955 -0.000336059
-0.00196383 -0.00201885 -0.00475848
4.9367e-05 -3.03849e-05 1.96832e-06
-8.74082e-06 1.01927e-05 8.98116e-06
-2.99975e-07 -1.06354e-05 -1.94371e-07
0.000259134 7.06641e-05 0.000217808
1.80232e-05 -8.16504e-05 -1.04843e-05
-9.40673e-05 0.000203478 -7.40162e-06
2.27682e-05 -0.000189444 -0.000323026
1.35478e-05 -5.22415e-07 9.50722e-06
-5.37035e-05 -2.13981e-05 -8.0156e-06
6.14929e-05 0.00112888 8.05637e-06
0.000157238 -0.000182964 -4.7136e-05
4.28994e-06 3.59636e-06 1.16555e-06
-3.83948e-05 -0.000596042 0.000472421
1.12546e-05 -3.85717e-06 -3.61811e-06
8.21235e-05 6.9087e-05 -0.00199162
-0.000102865 -6.55284e-06 5.99085e-05
4.8162e-05 -5.62464e-06 -5.33641e-08
-6.19401e-05 0.000139454 -2.48275e-05
-0.00059651 -0.00124392 -1.9851e-06
1.26855e-05 3.65352e-06 -7.88514e-05
2.41137e-05 0.000122494 5.34025e-05
-0.000149484 -9.94866e-05 -0.000172332
-1.04771e-05 -7.70307e-06 7.80882e-07
7.62018e-05 -0.00017343 6.94412e-05
-0.000901105 -0.000708209 -1.04683e-05
-4.54358e-06 0.00015128 0.000291541
-3.1145e-05 3.69933e-06 1.54706e-05
5.43794e-05 -0.000315316 -0.000330545
-5.93687e-05 -9.73268e-05 -0.000218352
-0.000200741 0.000113605 -0.000607913
0.00029017 -0.000420932 -0.00112661
3.93343e-05 -1.23802e-06 -3.11979e-05
8.20775e-06 4.92259e-05 5.07887e-06
-3.35576e-05 2.66964e-05 -5.82417e-06
-3.14259e-05 -2.05302e-05 2.0788e-05
-5.41734e-06 -1.01908e-05 6.1808e-07
-2.32801e-05 9.08138e-06 -1.04845e-05
-3.07341e-05 2.48197e-05 4.80968e-05
-5.89516e-05 -3.01033e-05 -1.39778e-05
-5.96896e-07 -9.92947e-08 -2.30621e-07
2.25263e-05 -3.38929e-05 9.08587e-06
-8.59559e-06 3.90811e-05 -2.68892e-06
-0.000278547 -9.06318e-05 -0.000191363
1.45413e-05 1.74087e-06 1.23378e-06
1.40815e-05 -2.90157e-05 1.58716e-05
1.18919e-05 -7.6901e-05 -9.80957e-05
1.86847e-06 9.7369e-06 -9.70413e-05
2.13481e-05 -5.42442e-05 -1.90078e-05
-8.17406e-06 1.09416e-07 -3.79193e-05
6.24202e-06 -1.20743e-05 5.09608e-06
2.07244e-05 6.21058e-05 -4.21788e-05
1.8319e-06 1.3857e-05 -8.81432e-07
4.56004e-05 -4.96833e-05 -9.82677e-07
-2.58813e-05 6.41057e-05 -4.2345e-05
4.98095e-06 4.26777e-08 -8.54078e-07
1.22925e-05 9.17027e-05 5.71792e-06
-4.42871e-06 -5.82427e-06 9.03357e-06
5.58076e-06 -5.42306e-05 3.99726e-05
7.15266e-05 7.17709e-05 2.54283e-05
-0.000652485 6.23825e-05 0.000924848
2.72335e-06 5.74534e-05 -3.03282e-05
-1.56369e-06 -1.85833e-06 -5.51037e-07
5.08075e-06 -5.10033e-06 -2.58561e-06
7.36068e-05 -9.29577e-05 -6.96172e-05
3.14775e-06 3.90777e-06 -9.09819e-07
-0.000653493 0.000296105 0.00069608
-1.22005e-05 -1.38148e-06 -6.49812e-06
-0.000320998 3.14557e-05 0.000276108
4.81911e-05 0.000127862 -0.000131694
0.000555607 -0.000263742 -0.000243182
-6.41128e-06 0.000270792 0.000277023
2.83399e-05 1.78516e-05 -4.94701e-06
4.05808e-05 -1.47713e-05 1.26831e-05
0.000160373 -0.000231205 -0.000671154
8.25078e-05 9.77329e-05 2.86333e-05
1.37641e-05 6.58382e-05 -8.64325e-05
-3.20227e-05 -5.85456e-06 2.31741e-05
5.87843e-06 -7.95007e-07 2.4763e-06
1.97152e-05 1.54387e-05 3.47444e-06
7.35144e-06 3.08216e-05 1.95824e-05
-3.78734e-05 5.42003e-05 -5.12315e-05
4.22664e-05 -0.000348246 -0.00033398
-0.000653708 0.000151922 4.90513e-05
2.24801e-07 3.95782e-05 7.09966e-05
5.19461e-05 -2.30648e-05 4.34426e-05
9.65328e-05 -0.000142728 -0.000148561
5.64283e-05 -7.55607e-06 4.56302e-05
-0.000265665 0.000473082 -0.00120782
-3.71755e-05 6.0777e-06 -2.31186e-05
2.72548e-05 0.000201455 8.12522e-05
-0.000472204 0.000633979 0.00101558
0.000288561 0.000818076 0.00168799
0.00020391 0.000144013 -0.00183335
-0.000278219 0.000210412 1.98553e-05
1.21372e-05 -9.76932e-06 7.80877e-06
-0.000111857 -5.68785e-06 -2.09005e-08
-0.000574413 0.000522557 0.00254642
-1.00207e-06 -6.10482e-07 1.69086e-06
-2.52903e-05 0.000140039 0.000110128
2.74959e-05 -2.49867e-06 4.9397e-05
-4.32363e-05 1.00485e-05 2.83249e-05
-0.00010723 -4.12034e-05 -3.21494e-05
-5.24014e-05 6.24324e-05 -1.44776e-05
1.71609e-05 5.45505e-05 -1.47178e-05
-1.81302e-06 -4.6301e-05 -0.000111141
7.23748e-05 3.86835e-06 -1.55476e-05
-6.68175e-05 0.00157278 0.00150522
-1.35227e-05 1.48899e-05 2.203e-05
1.0343e-06 -4.99809e-06 1.74329e-06
-3.37541e-06 1.28366e-05 5.37724e-06
-0.000562066 -0.000732148 2.54136e-05
-1.86021e-07 -1.01166e-07 1.6756e-07
0.000117775 0.00209808 0.000213074
4.99898e-05 -2.66848e-05 -3.79183e-05
7.28e-05 -0.000163672 -0.000212259
0.000120067 -5.20826e-06 9.19929e-05
-0.00130543 -0.000182986 0.00133338
-1.11125e-06 1.1374e-06 1.38777e-06
-0.00155181 0.000104642 -0.000708426
-0.000157485 -0.000107535 0.000134446
-2.25733e-05 2.15624e-05 -2.11145e-05
1.97936e-05 2.6609e-05 3.06647e-05
-0.000404063 -0.000285485 -0.000672406
-0.000174586 -0.000213665 -0.00066477
-0.00185996 -0.000379263 0.00172875
0.000265896 -0.000172314 -3.61987e-05
0.000215466 0.000129542 -0.000274762
-1.5201e-06 1.72367e-05 4.78673e-06
-1.40681e-05 -7.6942e-06 8.96451e-06
-6.75822e-05 -0.0003685 -0.00030788
-0.000239031 3.23357e-05 0.000117287
-3.80059e-05 -0.000112161 0.00023544
-2.47231e-06 2.17241e-05 6.37806e-06
-0.000123013 0.000944666 0.000511211
-4.79023e-05 3.03847e-05 -1.43055e-05
-2.23172e-05 3.39915e-05 -3.99596e-06
-0.000104632 0.000179664 -0.000127422
-1.57118e-06 3.08105e-06 1.97167e-06
-0.000167221 -0.000114197 0.000175372
7.58157e-05 -8.01387e-08 -1.43083e-06
2.31077e-05 -1.25438e-05 -2.42258e-06
3.75103e-05 -2.03174e-05 5.62268e-05
1.66335e-05 7.59661e-06 8.61643e-06
-3.19378e-05 -3.26748e-05 8.09521e-06
8.45345e-05 -0.000158406 -0.000364146
1.15185e-06 -8.8071e-07 3.77059e-06
0.000439775 1.45836e-05 0.000218412
6.27656e-05 -0.000140923 -0.00016599
-0.000508699 0.000436165 -0.000393696
-1.00893e-05 -0.000240836 -0.000101731
4.01809e-05 -3.88189e-05 -6.65836e-05
-5.33521e-05 1.01984e-05 5.35437e-05
-1.95436e-05 -2.23434e-05 1.16282e-05
-1.18903e-05 -7.30099e-07 -5.82852e-06
-1.46291e-06 -1.25226e-06 4.29818e-06
-9.11932e-07 3.58928e-06 -2.8409e-06
4.59769e-06 -1.97207e-06 -9.27446e-06
1.72169e-05 1.18411e-05 1.59397e-05
0.000292779 -9.94559e-05 0.000195449
-0.000106851 -0.000580845 -0.000333097
3.48121e-05 -0.000268441 0.00018681
0.000536577 6.26946e-05 -0.000788348
8.19019e-05 0.000172265 0.000307076
-1.46044e-05 -1.20878e-05 3.45356e-06
-5.69922e-05 -1.88176e-05 -7.40429e-06
1.03978e-05 3.90576e-05 2.89844e-05
-0.000519025 -0.000107987 0.000371527
0.000649007 0.000156922 0.000130244
-1.12549e-05 -1.25243e-05 4.44063e-06
-1.21243e-05 1.25478e-05 -1.99115e-06
0.000124225 4.21156e-05 -7.80368e-05
1.39295e-06 -1.89291e-06 -4.87435e-05
5.719e-05 0.000184502 0.000229369
-0.000454487 -0.000374013 0.00228831
-0.000338504 -0.00025057 0.000567929
-1.38786e-05 3.45067e-05 4.46932e-05
4.1764e-05 -1.37798e-05 5.10866e-05
8.48712e-05 0.000261388 0.000798462
-3.53002e-05 4.22645e-06 -2.41229e-05
-2.85355e-05 1.30703e-06 -2.73425e-06
8.06699e-06 -1.69734e-05 -1.27946e-05
-0.000432504 -0.000826196 -0.00160941
-5.88956e-06 -3.79355e-06 5.67208e-06
-0.00125904 -0.000343929 0.00154444
0.000474607 0.000111132 -0.000203029
4.10162e-05 -0.000335088 -0.000497775
2.98616e-05 9.44615e-05 -0.000127976
-1.5996e-05 2.39806e-05 3.66935e-05
-4.10207e-05 -6.13984e-06 -0.00107491
-1.84158e-05 1.02457e-05 1.39355e-05
4.69794e-06 -9.11848e-06 -4.68015e-06
-0.000574036 0.000376824 0.00168565
-0.00035072 0.000191165 -0.00104765
0.000827624 0.000464162 0.000423408
-0.00195884 0.000518797 -0.000762118
0.00108755 -0.00128603 -0.00075384
0.00241586 -0.000825263 0.00268521
4.22198e-05 8.60697e-06 1.1379e-05
3.80271e-06 1.49364e-05 1.27399e-05
1.52411e-05 8.25777e-07 -4.74855e-05
-3.96819e-06 7.67367e-06 -8.55373e-06
-0.000262482 0.00121206 -0.00137716
9.79012e-05 9.33298e-06 4.5611e-05
0.000210019 5.18963e-05 7.48611e-05
-7.06903e-06 3.21655e-07 8.11863e-06
-8.38547e-06 5.21512e-06 -3.82334e-06
-0.000101223 -9.58563e-05 5.17342e-05
0.000139363 4.23163e-05 8.51549e-05
2.25023e-05 -1.93011e-05 4.45884e-05
4.79657e-06 5.46531e-05 6.94084e-05
5.24993e-05 -9.37731e-06 -0.000139825
9.3209e-06 -3.67302e-06 1.81915e-05
1.26626e-05 -4.73768e-06 3.52201e-05
-2.00259e-06 -1.29129e-05 -2.10255e-05
1.6006e-05 2.4702e-05 -1.88376e-05
2.39509e-05 3.01532e-05 6.1753e-05
0.000497455 0.000143425 -0.000692011
2.94316e-05 -3.53882e-05 -2.40691e-05
1.93342e-05 1.71632e-05 3.26024e-05
-2.53555e-05 -1.11106e-05 1.08221e-05
6.40029e-05 2.98203e-05 1.25363e-05
2.82622e-05 2.19902e-05 1.55485e-05
5.45156e-06 1.10843e-07 -2.18053e-05
-2.95824e-05 -3.89929e-06 -3.08507e-05
-4.03786e-06 6.42425e-06 8.26147e-06
-3.41665e-05 -6.33265e-06 1.54697e-05
1.51462e-05 -3.43778e-05 1.36138e-05
3.13266e-06 -2.10502e-06 1.79973e-06
-0.00129427 -0.00139057 -0.00185634
0.000218378 1.68058e-05 4.04057e-05
-0.00127773 0.000871248 0.000883346
-0.000148712 0.000255269 0.000236107
0.000730029 -0.000216736 0.0012324
-2.45026e-05 -1.1433e-06 1.10305e-05
-0.000747714 0.00143187 0.000939508
0.000219259 7.01483e-05 3.26476e-06
-0.000154803 -0.000198366 0.000169719
2.62841e-05 -0.000269137 -0.00025009
5.83288e-06 2.24326e-05 -4.58369e-06
-1.3148e-05 -3.96446e-06 1.3427e-05
2.30218e-05 5.24834e-05 3.45508e-05
0.000137424 -7.01204e-05 -8.55549e-05
-0.000245641 1.57541e-05 -0.000283494
-0.000711971 -0.000109494 0.000941284
-0.000378228 -1.68375e-05 -0.000845918
7.04001e-06 -2.65993e-05 1.60626e-06
-0.000126016 0.00112415 -0.00077227
-4.12881e-07 8.19066e-06 -4.73953e-06
-0.000203888 2.68376e-05 0.000154685
-0.000621938 9.4733e-05 -0.000445759
-0.000490669 -0.00237788 0.000959241
-7.84759e-05 0.000102972 7.14333e-06
-1.46393e-05 -1.22636e-05 -0.000106577
5.86902e-06 -5.05464e-06 1.15515e-05
0.000426929 -0.000571107 -0.000610834
-0.000109924 -6.14913e-05 -0.000321137
3.68881e-05 5.70506e-05 -3.88224e-05
6.5839e-05 -2.00431e-05 -8.3167e-05
-1.7507e-05 2.88411e-06 -2.79013e-05
-5.27699e-05 4.07796e-05 -2.38545e-05
-8.83502e-05 -3.08304e-05 -1.43766e-05
0.00135609 -0.000890718 0.000139665
0.000128587 2.83944e-05 -3.61444e-06
0.000225077 0.000137229 0.00113556
0.000371163 1.03414e-05 -0.000339193
0.000285072 -7.70398e-05 -0.000275275
5.29565e-05 -1.29853e-05 -3.83812e-05
-1.54022e-06 5.89261e-06 4.52545e-06
3.94059e-05 5.38666e-05 5.64475e-05
-0.000242431 -3.55657e-05 -0.00022132
-1.40938e-05 5.84595e-06 -5.58294e-06
-4.49772e-05 2.14218e-05 1.81418e-05
-0.00110266 -0.00149137 0.00125372
-0.000151905 2.283e-05 2.10735e-05
-0.00101683 -0.000223724 -0.000592862
-8.3497e-05 -7.11167e-05 -3.89207e-05
-0.000469924 -0.000316583 0.000282446
-7.35136e-06 -5.06926e-07 -1.39955e-05
-1.14982e-06 3.18932e-07 5.05356e-06
2.80624e-06 -1.48942e-05 9.45583e-06
0.000147824 -9.33681e-05 6.48022e-05
-8.49975e-06 1.10062e-05 -1.00748e-05
4.06914e-05 -0.000676004 5.65562e-05
1.44641e-05 1.14999e-05 1.08741e-05
2.33117e-05 0.00016446 8.18424e-05
-5.70658e-06 3.03619e-06 -6.77694e-06
-0.000323518 -3.87771e-05 -1.52899e-05
-4.29676e-05 2.03174e-06 -5.44454e-05
-4.95676e-06 1.41548e-05 1.06389e-05
-0.000107613 0.000296656 -0.000423849
-2.21711e-05 -2.84013e-05 1.41583e-05
4.89771e-05 -0.000330846 0.000393001
-1.01819e-05 -1.28566e-05 -2.54774e-05
-0.000848073 0.00151248 -0.00205192
8.63126e-05 -2.12683e-05 -5.04437e-05
-4.56082e-06 1.51929e-06 1.35871e-06
-0.000493761 -0.00054638 -0.00171994
-1.57112e-05 -2.52447e-05 4.261e-06
0.000375723 0.000791377 -0.000172915
5.75365e-05 9.09891e-05 -9.54374e-05
6.68689e-06 -1.21449e-05 8.89525e-06
0.000120082 0.000100755 -0.000165394
3.62787e-06 -1.31271e-05 -1.65276e-05
5.67012e-06 -6.0856e-06 3.04718e-06
-0.0001008 0.000247318 0.000476207
-2.34152e-05 1.27269e-06 -9.84255e-06
4.60334e-05 -6.05704e-06 4.51717e-06
4.10599e-05 -5.16308e-05 3.76163e-05
-0.000202482 3.5723e-05 -4.85817e-05
1.54882e-07 -1.55315e-06 -2.12308e-07
1.67264e-05 3.9838e-07 -5.38342e-06
0.00104712 0.000287489 -0.001007
-0.000295047 -0.000408842 0.000104528
-1.84592e-05 -1.11332e-05 1.13121e-06
-7.53484e-05 0.000399567 -0.00116739
-2.47127e-05 -5.56654e-05 -7.36306e-05
-0.000998709 -0.00110852 0.00119432
7.57127e-05 2.43141e-05 5.22624e-05
-0.000277762 -0.000157696 -0.000153914
-4.48978e-05 -1.85654e-05 -4.35109e-05
-1.44582e-05 4.5676e-05 4.62395e-06
2.07606e-05 3.77166e-05 -1.15409e-05
1.68116e-05 -2.30624e-05 4.18572e-05
-3.09916e-06 8.02526e-06 -1.90801e-06
-0.000585016 0.000670697 -0.0012923
8.06167e-06 1.45627e-05 1.42791e-07
-1.4742e-05 -0.000166944 0.000132936
-4.6231e-05 -8.7988e-06 -3.75149e-06
-0.00013405 0.000256637 -0.000376338
-9.27515e-05 -0.000203846 -0.00017273
-2.34485e-06 6.88283e-07 2.83819e-06
9.00907e-05 -3.29949e-05 7.31611e-05
6.08257e-05 -2.45152e-05 3.4324e-05
4.69795e-05 -2.01596e-05 -1.87913e-06
-8.56487e-06 -3.31024e-05 1.43301e-05
-3.35883e-05 5.30545e-05 -6.08737e-05
-7.53294e-05 0.000108907 6.46729e-05
-9.4679e-05 -9.74113e-05 6.90141e-05
-1.72505e-05 -0.000135303 -6.89956e-05
-4.00678e-05 2.74385e-05 2.45047e-05
-0.000598647 0.001921 -0.000366989
-0.00168795 0.000641562 0.000356709
-0.00157714 -2.79216e-05 -0.00133929
-2.21419e-08 -3.21259e-06 3.11023e-06
-8.23307e-07 -3.05069e-07 1.0577e-06
-3.35805e-05 9.29779e-06 -6.71816e-06
-1.29774e-05 0.000108925 3.48932e-05
0.000493898 -0.000516496 -5.11736e-05
0.000114574 -0.00100532 0.00176154
-0.000477698 0.000567378 -0.000910845
-0.000443081 -0.000142235 -0.000621654
-0.000183632 -0.00208036 -0.000536839
2.11469e-06 1.07089e-05 -2.23311e-06
-3.92424e-05 -0.000130127 1.06244e-05
2.34933e-05 1.0205e-05 3.32855e-05
6.30761e-06 -1.32948e-05 7.00832e-06
0.000234083 1.46473e-05 8.46058e-07
1.11955e-05 -5.2472e-06 2.94065e-07
-1.17007e-05 -0.000111605 4.75123e-05
1.5171e-05 6.32852e-05 -4.0538e-05
1.69002e-05 -1.27767e-05 -9.84473e-06
-9.07022e-05 0.000122053 -0.000621856
0.00147453 0.000394892 -0.00274603
-1.60913e-06 5.71036e-06 3.37374e-06
-2.01314e-05 -3.61398e-05 1.34729e-05
5.52138e-06 7.84359e-06 3.09311e-06
9.87216e-06 -1.09337e-05 7.37915e-06
7.20262e-05 0.00019817 -0.000411434
-1.22982e-05 -1.13561e-05 7.66829e-06
0.000443465 -1.76306e-05 -0.000231584
-6.83272e-05 -0.000262974 -0.00217393
-0.00272033 0.000290006 0.000460033
-1.50847e-05 -1.28502e-05 -5.5968e-07
-3.95642e-06 1.40805e-05 -5.56336e-06
-2.80204e-06 7.07847e-07 -1.71386e-06
-2.1334e-05 6.51938e-06 1.11506e-05
-0.000897165 -0.000597019 6.29731e-05
4.04748e-07 -4.07546e-06 -1.89153e-06
0.00239381 -0.00060187 -0.00355042
-0.000958244 2.6235e-05 0.000385436
-0.000331501 -0.000756673 -0.001062
-0.000232399 -1.51095e-05 2.67356e-05
-0.000173343 -0.000709482 0.000746285
-2.09124e-05 -4.23021e-06 2.70015e-06
-4.64504e-05 6.87738e-05 -2.99573e-05
0.00160335 7.56101e-05 -0.00043281
-3.0374e-05 -1.25543e-05 1.65134e-05
-1.64336e-05 -4.73051e-05 -2.00977e-05
2.88655e-05 2.03599e-05 -2.76093e-05
-0.000428771 7.67189e-05 -0.000570632
-9.30777e-06 2.24151e-06 6.97112e-06
4.37349e-06 -3.78021e-07 3.21153e-06
-0.000438749 -0.000243658 5.74597e-05
5.44822e-05 3.02942e-05 -2.03601e-05
-1.81715e-06 -4.44471e-06 -2.97886e-06
9.7367e-05 0 0.000100555
8.76478e-06 0 1.43873e-05
7.83478e-06 0 -6.81875e-06
-2.84533e-05 0 -4.78272e-05
2.11956e-05 0 4.62932e-05
4.94998e-05 0 -2.10174e-05
-1.06543e-05 0 2.04227e-06
4.13855e-05 0 2.23505e-05
3.84635e-05 0 1.01958e-05
3.11581e-05 0 2.16285e-05
5.25436e-05 0 3.67799e-07
0.00180751 0 0.00231673
2.3659e-05 0 1.74032e-06
8.92322e-05 0 5.8124e-05
-0.000142542 -1.5814e-06 0
-9.11135e-05 -6.24322e-05 0
-8.86633e-06 5.5685e-06 0
-5.48476e-05 -9.4049e-05 0
-3.02824e-05 4.71561e-07 0
0.000790494 -0.000289769 0
0.000156505 -0.000673536 0
-2.84329e-05 -1.38389e-05 0
1.71423e-05 5.18991e-05 0
5.5914e-06 3.83054e-05 0
-9.50691e-05 -0.000102242 0
-1.2959e-05 0.000103904 0
0.00100155 -0.00168338 0
-9.51909e-05 7.68436e-05 0
-0.000156067 -0.000151364 0
-1.79352e-06 6.61599e-06 0
3.20246e-05 8.85469e-05 0
-9.3942e-05 0.000121189 0
-3.40872e-05 3.97767e-06 0
-0.000129537 2.25793e-05 0
0.000179364 -5.4429e-07 0
-2.44664e-05 -0.000426097 0
-1.04103e-05 -4.14448e-05 0
1.84919e-05 -1.32702e-05 0
1.22788e-09 -2.85532e-10 0
-6.94316e-05 8.93726e-05 0
-0.000111506 0.00025968 0
-0.000400024 -0.000203448 0
1.58705e-05 3.88467e-06 0
0.000219766 -8.57796e-05 0
1.67821e-07 -7.6809e-08 0
3.32063e-07 1.09672e-10 0
1.13903e-05 5.05226e-06 0
-0.000528667 0.000938065 0
-1.21223e-05 -3.56319e-05 0