<?xml version="1.0"?>
<VTKFile type="UnstructuredGrid" version="0.1" byte_order="LittleEndian" compressor="vtkZLibDataCompressor">
 <UnstructuredGrid GhostLevel="0">
  <Piece NumberOfPoints="1936" NumberOfCells="1936">
   <PointData>
    <DataArray type="Float64" Name="Elongation" NumberOfComponents="3"/>
-2.00702e-06 -7.46672e-06 -1.55018e-05
1.4962e-05 -1.65637e-06 0.000153218
2.90575e-05 2.74311e-06 -1.54603e-05
7.82533e-05 -3.68791e-05 0.000122713
8.59632e-05 3.83494e-05 -8.36084e-05
2.29157e-06 4.93493e-07 -6.08046e-06
2.47238e-08 -2.98713e-06 -1.34109e-05
-2.10896e-05 2.94832e-06 9.70904e-05
1.80096e-05 2.58765e-05 -2.86394e-05
1.3599e-05 -1.1194e-05 -1.60994e-05
-4.34178e-07 -7.11755e-07 5.22155e-07
-1.74421e-06 8.34454e-06 4.58152e-06
2.934e-05 3.08117e-05 3.7137e-05
-0.000114165 -6.96835e-05 -0.000114427
-2.7367e-05 2.59153e-05 2.58871e-05
1.49594e-05 9.34402e-05 -4.69079e-05
4.10691e-05 0.000133962 -0.000167292
-1.93172e-05 -6.9741e-06 7.00419e-06
-1.41821e-06 3.73222e-06 -5.89244e-07
-3.84505e-05 4.92957e-07 3.13105e-05
5.04702e-06 2.6253e-05 1.74296e-05
-2.56296e-06 2.24031e-05 3.17952e-05
2.59706e-05 -5.14228e-05 8.57656e-05
-2.16997e-06 9.14711e-06 -1.29014e-05
-3.242e-06 8.96086e-06 2.27068e-05
-1.56438e-05 -7.08968e-07 -2.68144e-05
-5.67409e-05 3.95792e-05 4.90332e-05
-2.56862e-05 -1.08289e-05 8.3645e-06
1.21589e-05 -3.55125e-05 9.1141e-06
8.73299e-05 5.42997e-05 3.7325e-05
-1.5131e-05 1.97424e-05 2.42458e-05
-5.02427e-06 6.16679e-05 -4.39993e-05
1.40788e-05 -3.59196e-06 -1.32603e-05
-0.000450784 -0.000330641 8.93279e-05
-8.10711e-05 5.40585e-05 -0.000164931
-0.000287606 0.000496401 -0.000277929
-0.000100925 -0.000139041 -5.95377e-05
0.000672009 -0.000132577 -0.000599986
-4.1231e-06 1.11147e-05 1.73456e-05
-2.80293e-05 9.96337e-05 9.14428e-05
2.16047e-05 1.10415e-05 1.01479e-05
-1.56614e-05 3.44105e-05 -0.000317267
0.000146409 -6.90161e-05 -2.4372e-05
-7.48011e-05 3.59884e-05 6.22599e-05
9.70472e-05 -0.000164646 0.000141343
-4.65714e-05 1.47302e-05 5.1048e-05
1.431e-05 -8.99829e-06 9.21929e-06
-7.92681e-05 3.79362e-05 0.000115187
2.73162e-05 7.14984e-05 -2.08585e-05
-3.26589e-05 2.35708e-05 1.65226e-05
-3.47246e-05 1.25222e-05 5.09385e-05
0.000317123 0.000155925 0.000207722
0.000394742 0.000291051 0.000553113
1.5896e-06 -8.07311e-06 -7.62472e-06
-1.51322e-06 -3.38181e-06 1.58791e-06
5.67288e-05 3.12657e-05 7.45794e-05
-2.67599e-05 0.00045526 0.000257584
-1.13032e-05 5.68859e-05 -4.96858e-05
2.57332e-06 -2.87212e-05 3.22303e-05
-0.000103131 7.98663e-05 7.35436e-05
-2.95045e-05 2.88668e-05 -9.70662e-06
-8.71157e-05 6.16595e-05 0.000150026
1.64951e-05 -2.40088e-05 1.79016e-05
-2.63523e-06 -1.5637e-05 -1.49982e-05
1.15419e-05 2.82498e-05 1.75168e-05
-5.06667e-06 -8.25328e-06 4.53413e-06
-1.25145e-05 3.23472e-05 1.7003e-05
-1.30894e-05 -3.98295e-05 2.27586e-05
6.47974e-05 -6.0854e-05 -2.00178e-05
4.51962e-06 4.75392e-05 -2.74534e-05
7.72801e-06 -1.87612e-05 -1.0704e-05
4.52151e-05 -6.96067e-05 -5.80406e-05
-0.000103679 7.33266e-05 -1.90116e-05
4.16174e-05 0.000108797 6.87996e-05
-3.39115e-05 3.18069e-05 4.9406e-05
0.000209652 0.000100718 0.000212103
-0.000133477 -4.78028e-05 0.000323997
-3.73016e-05 0.000119837 0.000253355
1.71347e-05 7.92685e-06 -1.146e-05
-3.56796e-06 5.88313e-05 3.62192e-05
3.1765e-05 -7.04189e-06 3.27496e-05
-0.000328337 -0.000966446 -0.00141444
0.000170264 3.6514e-05 -2.00996e-05
-3.03777e-05 0.000181881 1.96277e-05
0.000116594 0.000250745 -0.000135288
0.00015347 -0.000427553 -0.000271844
-1.14996e-05 -2.04753e-05 -7.12929e-06
-4.63055e-05 8.147e-06 3.17637e-05
5.93601e-05 2.98666e-05 2.3831e-05
5.06148e-06 -8.1079e-08 2.98005e-06
-1.07518e-05 -4.11302e-06 -6.02082e-06
-1.55604e-05 -3.03982e-06 -1.2393e-05
-6.60247e-05 1.99812e-05 -0.000162219
1.56915e-06 -7.7777e-07 4.54604e-06
1.75771e-05 1.31014e-05 2.03562e-06
-1.51067e-06 3.82065e-06 2.17471e-05
-3.6939e-06 4.30487e-06 1.61422e-06
-1.91931e-05 1.33717e-06 -1.28711e-05
1.25538e-05 0.000214244 0.000394459
-5.71871e-06 1.49903e-05 -7.80117e-06
1.94895e-05 -3.87014e-06 -2.199e-05
-1.97175e-05 1.30574e-05 -3.10522e-05
-3.61028e-05 -6.4858e-06 4.99499e-05
-5.74197e-06 -6.28967e-06 -7.20995e-07
1.83821e-05 -1.6481e-05 5.03272e-06
3.78493e-06 -1.09514e-05 -2.30103e-06
1.00071e-05 3.38777e-06 6.9537e-06
7.16133e-05 -1.62988e-05 5.46428e-05
3.94245e-05 7.79037e-05 9.03391e-05
-3.59879e-05 8.89382e-05 -6.96059e-05
-8.02028e-05 -0.000181439 -6.8733e-05
-3.87645e-06 9.27765e-06 -1.18776e-05
4.62099e-06 5.57763e-05 2.56034e-05
-7.48265e-06 9.53323e-06 4.33516e-06
-2.81308e-05 -2.27067e-05 3.23789e-05
-5.228e-06 -2.76369e-06 1.65685e-06
6.99729e-06 -2.11745e-07 1.23235e-05
-5.97737e-05 6.22591e-05 5.05547e-05
9.47801e-06 -5.71928e-05 2.67306e-05
6.12056e-05 -1.2024e-05 -0.000361156
5.6213e-05 4.6564e-05 -2.45662e-05
-4.13167e-06 -5.14514e-06 -4.73716e-06
6.18332e-05 -2.69695e-06 1.81382e-05
1.00891e-05 4.72494e-05 3.67509e-05
-4.32225e-07 -6.77928e-06 -6.20955e-06
3.71453e-06 -8.13644e-07 -4.03975e-06
-2.90578e-06 3.6773e-06 -5.70236e-06
-0.000103747 -0.000105561 -7.43608e-05
-5.25476e-06 -4.39205e-06 4.80864e-06
-5.1813e-06 8.57754e-06 7.99913e-06
-4.62314e-06 -9.94505e-06 1.12661e-06
1.32414e-05 -2.05048e-05 3.68859e-06
-3.36028e-06 -2.4471e-06 9.19545e-06
2.43009e-06 -1.02098e-05 3.84858e-06
-5.07693e-06 5.78198e-06 -7.41146e-05
2.28807e-06 -5.50865e-07 -1.93228e-06
4.97799e-06 -9.08659e-07 1.04403e-05
9.65591e-06 -2.87918e-06 6.21935e-06
4.54284e-06 2.22399e-06 4.37597e-06
3.66826e-05 2.43332e-05 -3.70362e-05
-6.95212e-05 -1.43981e-06 0.000189936
-4.30027e-05 2.69556e-05 0.000213541
-1.55903e-06 1.50457e-05 -1.079e-05
1.42318e-05 2.5881e-06 -9.60909e-05
-3.36286e-05 -1.52201e-05 3.81493e-05
6.8365e-06 4.21821e-05 2.03147e-05
3.83742e-05 -1.53544e-05 4.54502e-05
2.2747e-06 2.35819e-06 2.33198e-05
-0.000168026 0.000187399 -0.000160051
8.8038e-06 -2.07006e-05 -0.000204922
-3.77688e-05 -2.07326e-05 4.98087e-05
6.52283e-05 0.000130121 4.33674e-05
-3.73211e-05 5.15157e-06 2.45211e-05
3.80014e-05 -8.82676e-06 2.13556e-05
0.00015338 0.000133948 0.000248303
-6.8212e-08 3.50416e-09 1.54108e-07
-2.06132e-05 -1.24876e-05 -3.98763e-07
2.29089e-05 -2.07802e-05 -6.7738e-06
-4.90427e-06 -6.1495e-07 -3.65703e-06
2.66612e-05 1.09994e-05 -2.14429e-05
3.50956e-06 1.26301e-06 -1.77882e-05
-1.09838e-05 7.9028e-06 2.72552e-05
-3.19088e-07 -4.27236e-06 7.55098e-06
-4.03278e-06 1.24668e-05 -7.36982e-06
3.91824e-05 -6.99007e-05 -2.83177e-05
4.39631e-06 -8.40918e-06 1.14667e-05
-1.43985e-05 -1.93748e-05 -1.55649e-05
1.27652e-05 -1.28214e-05 7.41444e-05
-7.90579e-06 2.99241e-05 -7.11304e-06
0.000200237 -0.000123138 0.000205414
-2.27943e-06 9.26523e-06 -1.07455e-05
3.89776e-05 -3.88931e-06 7.37587e-06
-1.03202e-05 -8.76735e-06 7.26969e-06
-9.89892e-06 5.22715e-05 3.73269e-05
2.17531e-06 1.79285e-05 -1.98e-05
6.39802e-05 8.44198e-06 -5.51789e-05
0.000357328 0.000270848 0.000114632
1.94084e-05 -0.000143308 -0.000166665
-2.16459e-06 7.1656e-07 1.28502e-05
-1.39258e-06 -1.42113e-05 1.97808e-05
-1.35034e-05 -3.11553e-05 1.84885e-05
-3.03722e-05 4.93054e-05 7.35493e-06
-5.78564e-05 -0.000150831 -0.000232119
0.000200889 7.34836e-05 1.61368e-05
-0.000163954 0.000168103 0.000106736
-9.96928e-06 5.23698e-06 -8.41376e-07
-1.3763e-06 -1.78009e-05 -3.17713e-05
1.99308e-05 4.91871e-06 -6.79765e-06
0.00023833 -0.000215451 -0.000164379
3.26193e-05 -4.28425e-05 1.7997e-05
1.13774e-05 4.75569e-05 4.48151e-05
-2.68594e-05 -1.0046e-05 -2.07163e-05
-0.000106901 0.000109872 1.58952e-05
1.13994e-05 -2.74249e-05 -4.79852e-05
-0.000118278 -7.69879e-05 -3.93399e-05
6.94781e-07 -8.6276e-06 -1.15634e-05
-0.000126071 -7.93226e-06 0.000133736
-2.58758e-05 -3.15565e-05 -1.14669e-05
-0.000394539 -0.000354513 -0.000157589
-9.68948e-05 3.87641e-05 -6.72348e-05
-9.42825e-05 2.32144e-05 9.58435e-05
0.000220018 8.82841e-05 -3.40842e-06
-5.16199e-05 -0.000193766 -0.000328988
-9.98356e-05 -4.61005e-05 -0.000212391
3.77127e-05 6.00593e-05 6.75344e-05
5.89469e-06 -9.03028e-06 -3.0364e-07
2.93713e-05 8.20392e-06 1.058e-05
-1.74686e-05 -1.50081e-05 -6.50774e-06
9.02872e-06 -2.14535e-05 9.03503e-06
-2.16965e-05 1.11806e-06 -1.4999e-06
-0.000181561 -3.53712e-05 0.000127255
-4.09742e-05 0.000767162 -0.000325916
0.000213297 -0.000852045 -0.000661473
-1.78682e-06 -8.64556e-06 1.95068e-05
-1.20626e-05 1.62311e-05 -7.2147e-06
-2.69526e-05 4.64386e-06 1.20344e-06
-7.44776e-05 7.22452e-05 2.67591e-05
-0.000322288 -0.000305217 -0.000106466
-5.10425e-05 -4.35079e-05 -8.62138e-05
3.14017e-07 1.75238e-06 4.9681e-06
-2.43249e-06 -7.98173e-05 7.06186e-05
4.79223e-06 8.03195e-06 0.000131675
1.36128e-06 2.19308e-08 1.01858e-06
-1.2875e-05 -7.51548e-05 -2.05186e-05
-1.47341e-05 -2.28785e-05 -8.80418e-06
-2.37736e-05 -3.96282e-05 7.20076e-05
3.25707e-05 -3.46116e-06 5.44307e-05
-3.80196e-05 -0.000110282 -0.00016351
-1.22422e-05 -9.46447e-06 -1.06611e-06
4.70491e-05 4.15404e-05 7.27244e-05
-3.37096e-05 -1.95263e-05 4.04609e-05
1.92938e-06 -1.57328e-06 -6.52547e-06
-6.89914e-05 1.67036e-05 6.56462e-05
-1.20719e-06 1.02366e-06 -2.16663e-06
-1.51932e-05 -6.61936e-06 6.76475e-05
1.20308e-05 -2.2193e-05 -1.44088e-05
-2.3245e-05 -5.01247e-05 2.1549e-05
3.2815e-05 -5.29365e-05 -2.48404e-05
6.06369e-06 3.40388e-06 6.30114e-06
-2.85616e-08 4.43605e-06 1.49842e-06
-0.000217131 0.000252059 -0.000290225
1.32228e-05 -1.29845e-06 2.76134e-05
3.23979e-05 -4.45414e-05 2.6783e-05
-5.19312e-05 3.4495e-05 1.45858e-05
-1.35009e-06 7.49423e-07 -3.69539e-06
-1.67247e-05 -6.66455e-06 4.46455e-06
3.33739e-05 0.000111243 -1.24282e-05
7.42591e-06 -3.85364e-06 -1.07329e-05
4.26955e-05 5.05141e-07 7.00244e-05
-2.59503e-05 3.09718e-05 1.21985e-05
4.03766e-05 -3.73207e-05 -0.000426412
-0.000128467 -0.000102041 -4.48646e-05
-0.000169114 0.00025548 0.000289412
4.13355e-05 5.31064e-05 2.09327e-05
1.11854e-05 -9.93739e-06 1.62671e-05
2.1242e-06 -1.64771e-05 3.10605e-05
-2.34518e-05 1.23079e-05 7.64144e-06
-9.48717e-06 -1.12834e-05 1.38323e-05
-4.426e-07 1.48351e-06 -1.02382e-05
6.70791e-05 2.32237e-05 5.64926e-05
6.20968e-06 -6.17506e-06 9.12369e-06
-2.49732e-05 -2.09576e-05 1.46225e-05
3.44208e-05 5.25276e-06 2.56618e-05
-0.000183741 -4.32473e-05 0.000122277
3.22359e-05 -3.16017e-05 -0.000135234
2.82486e-05 -8.17736e-05 1.59565e-05
-2.19792e-05 -6.87842e-06 9.33772e-06
2.50732e-05 3.60628e-05 3.96293e-05
-1.24207e-05 -2.86981e-05 3.60541e-05
1.40733e-05 -2.24577e-05 -3.09002e-05
4.20159e-05 -2.55389e-05 1.94823e-05
2.61446e-05 -5.85306e-07 -5.29559e-05
-4.8558e-06 4.49269e-08 -1.54466e-05
-1.00428e-07 4.69568e-05 0.000129562
-2.90503e-05 -2.93665e-05 3.80494e-05
-1.03279e-06 -1.53865e-07 3.79935e-06
1.20699e-06 -2.44425e-06 -1.63936e-05
-1.4603e-05 1.34696e-06 4.94703e-05
-3.32056e-08 -5.47076e-07 5.49986e-07
-1.65966e-06 4.8489e-07 -1.36547e-06
8.34932e-07 2.63897e-05 1.29441e-05
2.63207e-06 1.14934e-06 3.96568e-06
-3.80668e-07 5.84374e-07 9.06067e-06
-4.46052e-06 1.99341e-05 1.36568e-05
5.25094e-06 1.10485e-05 1.48633e-05
-2.89041e-05 -2.05652e-05 2.80537e-05
3.58587e-06 -4.41902e-06 -8.68408e-06
2.55838e-05 -1.56247e-06 1.67938e-05
-8.74663e-06 2.39159e-05 2.80354e-05
-6.50102e-06 1.12028e-05 1.43983e-05
1.09357e-05 -7.1992e-06 1.63366e-05
-3.7944e-05 -1.37101e-05 -2.1443e-05
6.03103e-06 1.88303e-05 -4.52802e-05
2.40154e-05 2.67954e-06 1.78641e-05
-2.79748e-06 -1.06713e-05 1.84335e-05
-1.72023e-08 2.45361e-07 -8.56716e-06
-3.43414e-07 1.89724e-05 -1.75315e-06
3.2012e-05 -4.18797e-06 7.18956e-06
-2.98473e-05 7.00519e-06 3.84726e-05
6.19369e-06 4.63368e-06 -2.30025e-06
-7.56083e-06 8.28108e-06 7.14253e-06
-3.40132e-05 -6.57751e-05 -1.35385e-05
7.30995e-07 -7.90325e-06 1.82415e-07
1.37772e-05 -1.37813e-06 3.65358e-06
-5.14921e-06 -3.27238e-08 2.86372e-08
-1.93095e-07 -2.22674e-07 1.1883e-07
-7.31854e-06 -5.61091e-06 2.71108e-05
5.71108e-05 7.713e-05 -6.10305e-05
1.29917e-06 -1.60071e-05 4.30026e-05
2.95349e-05 8.01386e-05 0.00025019
4.1764e-05 3.63617e-06 6.01561e-05
0.000421888 -0.000166562 -0.000745424
-3.09188e-05 -9.61302e-05 0.000192049
0.000625224 8.82392e-05 0.000476854
-3.58031e-05 1.96677e-05 6.27201e-06
0.000267498 -0.000478549 -0.000284104
1.67957e-05 -1.69916e-05 5.38225e-06
9.29293e-06 3.17594e-05 9.12577e-06
2.94281e-05 -4.80228e-05 -1.03393e-05
-7.43304e-05 0.000146714 2.0003e-05
-3.79741e-05 2.71246e-05 -4.23283e-06
-7.55329e-05 -8.23025e-05 0.000180512
4.10937e-05 2.81235e-05 -7.87357e-06
-1.75362e-06 -6.44044e-08 -4.6243e-07
-3.76214e-05 1.10233e-05 -2.24422e-05
4.31012e-06 8.92995e-05 7.6145e-06
1.31986e-05 -1.11334e-05 -1.75228e-05
3.29604e-06 1.44193e-05 -1.85278e-05
8.34109e-06 1.59429e-05 -1.61376e-05
-7.63061e-07 1.09726e-05 -7.49226e-06
4.32338e-05 6.29561e-06 -3.74338e-05
-2.22003e-06 4.78099e-06 3.36417e-05
1.68457e-05 -4.33667e-08 5.19329e-05
-6.48584e-06 2.08712e-06 -1.59444e-06
2.18846e-06 -1.78956e-05 1.6043e-05
-0.000201476 -4.61681e-05 0.000200122
0.000213721 -4.37752e-05 8.1295e-05
1.95101e-05 4.13818e-05 -0.000155019
-4.35548e-05 -6.08971e-05 6.11089e-05
2.77163e-06 -1.29893e-05 1.00296e-06
-1.97187e-06 3.12615e-06 -2.41031e-06
2.1182e-05 -3.90123e-06 -2.11261e-05
4.94355e-05 -4.786e-05 -0.000119281
-1.1616e-05 5.08873e-06 4.76287e-07
-1.47369e-05 -1.01364e-05 -4.18702e-06
-1.28394e-05 7.22223e-06 -1.56592e-06
-0.000155246 5.41519e-05 -1.57275e-05
2.87492e-05 -6.07368e-06 -2.09551e-05
2.12478e-05 1.26764e-05 1.34567e-05
5.4675e-06 -7.65984e-06 6.641e-06
-4.44703e-06 6.7326e-06 1.02461e-05
4.85192e-06 4.51727e-06 9.43413e-06
-0.000139692 1.83727e-05 0.000114716
-6.09837e-05 -3.89833e-05 -0.000100647
4.9863e-05 3.9859e-05 3.50167e-05
8.30086e-06 -1.54295e-05 -1.70495e-05
7.0772e-05 -3.54773e-05 -1.48875e-05
-1.89831e-05 -4.83145e-06 3.9947e-05
-0.000105075 2.49841e-05 -0.000149739
0.000245881 -9.35036e-05 0.000232837
2.341e-05 1.28744e-05 2.77524e-06
1.578e-07 1.20676e-05 -9.75965e-06
-5.85769e-07 2.50942e-05 1.76538e-07
3.05955e-05 -2.32425e-05 -9.23901e-06
-2.78813e-05 2.88484e-05 -2.85048e-06
5.68246e-06 6.03189e-06 -9.45911e-06
-3.64811e-05 -3.34151e-05 1.47244e-05
8.20593e-05 -3.54726e-06 3.4818e-05
0.000323588 -0.000134039 -0.000154928
-0.000197096 0.00032416 -0.000249106
-5.23166e-05 -5.26681e-07 7.96565e-05
9.29877e-06 -2.37311e-06 6.76383e-06
3.52821e-05 6.9476e-05 -1.035e-05
0.000247473 2.4218e-05 -0.000139469
-5.9019e-06 1.75979e-05 1.09825e-05
-1.62518e-05 2.02372e-05 -1.76188e-05
1.50892e-05 8.40798e-07 -9.12844e-06
-8.657e-05 8.5337e-05 2.91546e-05
-5.87419e-05 -1.47005e-05 -3.28308e-05
6.4773e-05 3.12759e-05 -5.69346e-05
1.91234e-05 -1.79059e-05 1.5569e-05
2.39316e-06 2.50739e-06 8.55776e-06
-9.37282e-06 9.70449e-07 1.51332e-06
3.93896e-05 6.88882e-05 7.20711e-05
3.2726e-05 8.06962e-06 -2.12224e-05
1.1638e-05 1.25697e-05 1.33168e-05
9.42725e-06 2.24151e-05 2.73474e-05
3.30482e-08 -4.08265e-06 -1.43826e-05
3.64732e-05 3.34784e-05 -2.8666e-06
3.72774e-05 3.30558e-05 -1.45867e-05
3.0877e-05 0.000152288 -6.8338e-05
3.22142e-05 -1.22282e-05 -6.5775e-05
7.34605e-06 4.93974e-06 -1.3165e-07
-2.17221e-05 -2.11876e-05 -4.43491e-06
-5.32748e-05 -2.30332e-05 -2.76748e-05
1.69434e-05 -2.99195e-05 1.21578e-05
-1.6205e-05 -3.48703e-06 7.5045e-06
8.50192e-05 0.000339773 0.00039768
4.25235e-06 -1.79928e-05 1.93434e-05
-7.00567e-06 3.28233e-06 9.12823e-06
-8.75277e-06 -2.25894e-06 6.30637e-06
-5.39764e-05 1.87574e-05 3.80148e-06
-8.14241e-06 -1.96649e-05 -1.32967e-05
-1.00388e-05 1.28716e-05 1.75552e-05
5.07357e-06 1.63205e-05 -1.03245e-05
-5.53748e-05 1.28707e-05 0.000125959
3.35e-05 -4.49139e-06 0.000101104
-2.93069e-06 7.97537e-06 1.47024e-05
9.32725e-06 1.48936e-05 5.96002e-05
-7.70793e-06 -6.93705e-06 1.04019e-05
-8.89466e-07 -3.79943e-07 -1.08765e-05
1.52392e-05 6.87192e-07 1.73376e-05
-8.79214e-06 4.58908e-06 -1.53706e-05
9.354e-06 7.80537e-06 3.78269e-06
1.09583e-05 -5.02168e-07 -7.47662e-06
-0.000265043 1.51955e-05 0.00123688
2.74994e-05 -1.28538e-05 -6.2806e-06
1.77387e-05 1.16298e-05 1.09826e-05
1.03586e-05 -1.66543e-05 1.53593e-05
1.37924e-07 -1.78484e-08 -7.08277e-06
9.91978e-06 1.10383e-05 -9.4853e-06
-7.82064e-06 -4.33348e-07 -1.54212e-05
9.5968e-06 -1.4449e-05 -8.02715e-06
-1.45262e-05 5.92511e-06 9.98752e-06
-2.54231e-07 -1.05943e-07 7.58144e-07
1.94931e-05 -1.66979e-05 1.32289e-06
-2.2138e-06 1.93546e-06 -1.17819e-05
1.62935e-05 1.33375e-05 1.71885e-06
-0.000132809 -0.000138157 2.5265e-05
-1.59583e-05 -1.37273e-06 3.48631e-05
0.000163157 -9.83504e-05 -0.000132674
1.7879e-06 0.000208793 -0.000168146
5.99105e-05 5.11861e-06 4.86625e-05
2.63976e-05 2.22911e-05 -2.86411e-05
6.49262e-05 -1.61811e-05 -2.20277e-05
3.70615e-05 6.08852e-06 4.73207e-05
-0.000120894 -6.0141e-05 -1.80114e-05
2.5261e-05 -3.66211e-05 2.57444e-05
-8.86294e-06 -1.61425e-05 1.46899e-05
2.16463e-05 8.18978e-06 -5.07842e-05
-1.59146e-05 3.99184e-06 -1.70565e-06
7.95227e-05 -2.52995e-05 -5.89231e-05
-0.000136932 -6.50136e-05 -0.000256254
0.000281997 0.000265652 -0.000231095
-6.09138e-06 9.30378e-06 -2.66286e-05
-6.55778e-05 5.59759e-06 -1.95132e-05
-5.24406e-05 3.64567e-05 -7.19179e-05
3.71173e-06 2.64187e-06 -4.6948e-06
1.64898e-05 3.63185e-05 6.80319e-06
-1.29801e-05 4.31553e-07 3.673e-05
8.82379e-06 -4.25073e-05 -3.16938e-05
-6.63693e-06 3.17024e-06 -3.16252e-06
9.72313e-06 -2.00921e-05 3.77448e-06
-2.70703e-05 1.46045e-05 1.43499e-05
-1.33973e-05 8.01045e-06 1.48986e-05
2.23326e-05 -2.97182e-05 1.54062e-05
7.56468e-05 1.49925e-05 5.5285e-05
4.67937e-06 -1.12815e-05 -7.73374e-06
7.70173e-06 4.45066e-05 -1.32405e-05
1.67823e-05 -4.29401e-05 -5.96208e-05
1.51318e-05 -3.58072e-05 -2.90287e-05
-6.7268e-06 3.89543e-05 -5.21057e-05
-2.65621e-05 1.91994e-05 6.3304e-05
2.3136e-05 -3.73089e-05 5.84952e-05
6.23539e-06 -3.50386e-07 1.85373e-07
1.54349e-06 1.49112e-05 -1.40699e-05
7.27414e-05 4.70853e-05 1.96109e-05
3.43937e-05 -5.57611e-06 -5.56595e-06
-3.57438e-05 -1.48252e-05 3.53549e-05
4.68151e-05 -4.35874e-05 -8.1331e-05
-0.00015586 -6.06532e-06 -4.51121e-05
-7.76168e-05 1.31634e-06 -2.02008e-05
-2.63391e-05 2.95844e-05 -3.47471e-05
7.06233e-07 -2.97224e-07 5.65155e-07
0.000212071 -1.17304e-05 0.000280629
-2.54773e-05 -1.23786e-05 3.32616e-05
0.000208408 0.000173697 0.000319476
-0.000120698 0.000116699 5.88829e-05
-3.55436e-05 -0.00021929 -0.000114364
-6.1569e-05 -4.36295e-05 -1.75978e-05
6.17073e-05 0.000145827 -6.41077e-05
3.72965e-05 -6.56597e-05 -3.16932e-05
-1.87775e-05 -1.74788e-05 5.73943e-05
-4.82822e-06 7.48518e-06 3.32093e-06
2.946e-06 1.95913e-05 -3.01093e-05
5.13838e-06 1.06441e-05 4.11688e-05
-2.73299e-06 3.57758e-06 -5.87257e-06
1.39887e-05 -6.43227e-06 9.34266e-06
-1.15891e-06 2.98652e-06 1.50378e-06
-4.76352e-06 -2.34062e-06 3.42938e-06
5.58227e-06 1.28967e-05 1.1698e-05
1.36004e-05 1.54515e-05 -2.41658e-05
1.92333e-05 -6.4813e-05 -2.83514e-05
0.000163628 -6.19548e-05 0.000319718
3.59113e-07 7.94634e-06 -1.27822e-05
-0.000402671 0.00095541 -0.000885724
0.000441164 -0.000294122 -7.2658e-05
0.000177889 -1.64823e-05 -8.19509e-05
0.000100588 -4.9954e-05 7.50797e-05
0.000134933 2.1742e-06 -0.000140136
-0.000132723 -0.00050411 0.000589353
6.99737e-05 2.94665e-05 -7.07822e-06
0.000108999 8.08818e-05 9.05939e-05
-0.000145656 -2.52682e-06 0.000372579
1.95478e-06 6.91108e-06 6.73335e-06
-3.54939e-05 2.90646e-05 4.57393e-06
-2.13613e-05 3.13107e-05 9.46288e-05
-3.13026e-05 5.45674e-05 3.49474e-06
7.89548e-06 -8.9609e-08 -1.56408e-05
3.43243e-05 -9.06095e-06 1.31523e-05
3.16761e-05 -2.12351e-05 1.32401e-05
4.40748e-06 2.22188e-05 1.14884e-05
1.17726e-05 4.93073e-06 1.3674e-05
2.44583e-06 6.76583e-07 1.00632e-05
7.09971e-05 0.000206058 -0.000410171
-8.79218e-06 2.86486e-05 3.95856e-05
5.66463e-05 1.52642e-05 -5.35765e-05
5.83302e-07 -2.50752e-05 4.71423e-05
-6.25871e-08 8.99023e-06 2.66159e-06
-3.72706e-05 -1.07462e-05 -1.57005e-05
1.53909e-05 -2.11702e-05 6.79995e-06
1.84922e-05 -1.01053e-05 -1.50911e-06
7.22426e-06 -2.72998e-05 -3.68909e-06
1.0058e-05 -2.0742e-05 5.91818e-06
1.10969e-05 -4.70886e-05 2.00723e-05
1.62908e-05 1.68388e-06 8.68142e-06
-7.26595e-06 5.63902e-06 -8.32331e-05
-1.85259e-05 3.90271e-05 -3.63245e-05
-7.7388e-05 0.000113307 4.01476e-05
-2.96735e-06 4.25044e-07 3.4654e-05
-3.65082e-06 4.54353e-06 2.54453e-05
-1.23503e-05 7.43977e-06 -7.83751e-05
-0.000113051 1.43388e-05 0.000135651
1.60001e-05 -3.54788e-05 7.39488e-05
4.0245e-05 -2.30271e-05 -0.000137472
2.59471e-05 -7.22274e-05 0.000234934
3.18861e-05 -3.9654e-05 7.4032e-07
4.5098e-05 -3.05503e-05 -1.2084e-05
8.06429e-06 -5.85501e-06 -1.36736e-05
-1.53127e-05 -1.91687e-05 2.98737e-07
-2.04558e-05 -2.23698e-06 2.45354e-05
1.27646e-05 3.86939e-06 -6.94955e-06
-1.39382e-06 1.64301e-05 4.04136e-05
4.43641e-06 2.06235e-06 4.66598e-06
-9.25697e-06 1.59038e-06 1.08069e-05
1.27507e-06 -2.95969e-06 3.72572e-06
-7.17195e-06 5.08496e-06 5.11826e-06
-5.24262e-07 3.43076e-06 1.99916e-06
3.09635e-05 -6.61061e-05 -0.000114751
-2.73809e-06 1.57692e-07 -7.99561e-06
-2.46131e-05 -1.12673e-06 2.64474e-05
-1.28078e-05 -1.09008e-05 -2.1727e-05
-3.64419e-06 -1.00474e-07 -1.98293e-07
-3.39441e-06 2.50647e-06 -5.57828e-07
1.05978e-05 -1.03282e-05 8.31278e-06
-1.20287e-05 -1.43995e-05 2.02528e-05
-9.91882e-06 6.32686e-06 8.87843e-06
-1.22482e-05 -9.29712e-06 -7.3665e-06
3.31968e-06 -1.6197e-05 3.32356e-05
1.25842e-05 -1.32456e-05 -3.73949e-05
1.01154e-06 3.18597e-06 -2.31842e-07
5.38629e-06 1.42943e-05 -1.13564e-05
6.92103e-06 5.26701e-06 1.80328e-06
1.12943e-05 -0.000109862 6.23899e-06
-2.96948e-05 -1.46052e-05 2.29975e-05
-6.46156e-05 0.000402864 3.73132e-05
4.74315e-05 -2.50409e-05 5.76973e-05
-3.26051e-07 -1.28299e-05 -1.91823e-05
-4.05152e-05 -3.13947e-06 2.22359e-06
1.43402e-06 -2.07033e-05 9.95755e-06
1.91769e-05 2.7176e-05 9.83265e-06
1.86805e-06 -2.79744e-05 8.61125e-06
2.55987e-06 7.27324e-06 -4.85746e-05
-3.77992e-05 1.06365e-05 1.55002e-05
-3.79652e-05 7.35656e-05 0.000246147
1.28563e-05 -3.33813e-05 -3.0615e-05
9.0656e-06 -3.02806e-05 -6.92079e-06
-1.10533e-05 -4.90511e-07 2.03921e-05
3.18902e-05 -9.01545e-05 8.37455e-05
1.0469e-05 -3.88415e-06 -5.09801e-06
1.26223e-07 -1.12328e-06 1.78069e-05
-3.74452e-06 2.61257e-05 2.60519e-07
-2.32183e-06 -8.02636e-06 -2.93286e-06
-1.50981e-06 -1.22667e-06 1.36955e-06
2.57941e-06 2.17533e-06 8.02594e-07
1.49497e-05 1.32575e-05 0.000115137
-1.671e-06 8.02009e-07 3.00011e-06
1.46118e-05 1.70558e-05 4.98669e-06
-6.3081e-06 -4.31817e-06 1.81157e-05
-4.27899e-05 5.18996e-05 2.51626e-05
-5.3214e-06 1.81892e-06 -1.00345e-05
4.42862e-05 -4.22007e-05 -2.63898e-05
-0.000110704 -0.000125069 -6.79423e-05
2.41125e-05 -2.81542e-06 -5.8865e-05
-0.000258922 -9.31027e-05 0.000137072
0.000139087 9.39302e-05 -6.77404e-05
-1.1008e-06 6.49262e-05 6.93108e-05
1.73464e-05 -5.32857e-05 5.5182e-05
2.40534e-05 -1.34556e-05 -3.02888e-07
-3.39067e-06 1.7515e-05 -4.1969e-06
1.34368e-05 5.72436e-07 1.33916e-05
-1.26253e-05 3.70703e-06 -1.04785e-05
-4.7488e-06 -2.68399e-05 -1.3037e-05
-4.40967e-05 0.000147988 -2.33312e-05
6.87998e-06 5.35306e-05 -6.40588e-05
1.01008e-05 -3.10243e-06 -8.37063e-06
6.90932e-07 -2.77929e-05 1.00847e-05
-1.81715e-05 -2.04865e-05 -1.27096e-05
-5.64995e-06 1.10965e-06 1.88437e-05
1.04695e-06 2.93172e-07 -2.68625e-06
-4.9815e-06 4.06972e-06 2.23729e-05
9.16953e-06 1.40273e-05 -6.51572e-06
1.94927e-05 -5.3608e-07 1.43298e-05
2.32401e-05 9.92405e-05 1.41115e-05
-1.15216e-05 -5.94659e-05 7.65397e-06
-8.68078e-08 -1.74815e-06 -1.46419e-06
5.94247e-05 -4.88346e-05 -2.71802e-06
0.000164618 -0.000213391 -2.84887e-05
1.37343e-05 -1.10219e-05 -2.18064e-05
-1.41566e-05 1.92891e-05 -5.50186e-06
1.72009e-05 -6.80463e-05 -3.13572e-05
-0.000161112 0.000260547 2.69065e-05
-0.000183192 -2.29686e-05 -0.000198814
-7.53714e-05 5.65383e-05 1.6916e-06
3.01634e-05 1.75673e-06 5.0029e-06
-1.95278e-06 9.30355e-06 -7.8195e-06
5.55492e-06 -1.29674e-05 -2.13166e-05
2.70203e-06 -1.57276e-06 7.33912e-06
2.43637e-06 -7.0034e-07 3.26315e-06
-1.12133e-06 -1.17798e-06 -1.89181e-05
-1.24431e-05 2.92574e-06 -1.31713e-05
-1.30809e-05 -8.52577e-06 -3.32523e-05
1.42459e-05 -2.81429e-05 9.26239e-06
1.51745e-05 -7.0177e-05 -4.02373e-05
-9.19224e-07 -1.42405e-06 -2.14891e-06
2.93824e-05 1.12611e-06 2.01841e-05
-7.4667e-06 -2.94649e-06 -1.90744e-05
9.28516e-07 2.25618e-05 3.45698e-06
-4.39472e-05 3.47782e-07 -3.7422e-05
1.25735e-05 7.56625e-06 -7.86809e-06
3.29839e-06 5.80498e-06 9.07573e-06
-3.16804e-07 -1.9871e-06 -4.88474e-05
-1.47197e-06 2.031e-06 4.02016e-07
-0.000120296 -0.000127286 0.000202721
-5.12926e-07 -5.32325e-06 1.93459e-06
2.5745e-06 2.42769e-05 -2.00341e-05
9.04713e-06 9.70746e-08 -1.69999e-07
-3.5476e-05 2.21732e-05 5.02424e-05
-0.000128698 8.13612e-05 9.02265e-05
-2.58259e-05 0.000119854 -0.000191521
5.95731e-06 -3.74974e-06 -3.92953e-06
-0.000105146 -4.88028e-05 -2.82785e-05
-1.27208e-05 1.16814e-05 -1.02399e-05
-1.26233e-05 7.4959e-06 1.3327e-05
1.46858e-05 6.44675e-06 -1.35474e-05
-1.51519e-05 1.14871e-05 1.85509e-05
5.47477e-06 -4.16402e-06 1.85493e-06
-7.238e-06 2.87285e-07 2.53741e-05
0.000114963 -3.76109e-05 -0.000223751
-6.64301e-05 -7.62661e-05 4.30716e-06
-0.00039652 8.6252e-05 -0.00109998
0.000179693 -7.72589e-05 -0.000220029
2.96923e-05 4.01398e-05 5.55111e-05
1.00442e-05 7.78882e-06 -2.3509e-06
-2.07688e-05 -4.5013e-05 1.06831e-05
-6.68691e-05 -1.36496e-05 3.81745e-05
4.87162e-05 -6.86034e-06 -7.97553e-05
4.25742e-05 -0.000263714 -6.66238e-06
-4.54909e-05 -4.24641e-05 -6.80616e-05
2.97599e-05 8.27783e-06 5.7987e-05
-6.44362e-06 -6.74134e-05 -4.07808e-06
2.25988e-05 2.68648e-05 -1.84083e-05
-4.29836e-06 -1.13624e-05 4.59117e-06
1.5475e-06 2.34078e-05 -2.76901e-05
1.12841e-05 1.50437e-05 -4.7685e-06
-3.01623e-07 4.40282e-06 2.56504e-06
1.9623e-06 -1.46456e-05 -7.7801e-06
-5.78196e-07 1.94849e-05 2.09155e-05
9.29965e-06 4.05546e-05 -5.72761e-06
2.45638e-05 -7.49621e-05 -5.65243e-05
2.34529e-06 -6.40128e-06 9.66228e-07
-2.75006e-06 3.26354e-06 -6.2115e-07
1.76558e-05 2.03007e-05 -8.6948e-06
2.35863e-06 5.72975e-07 5.1802e-07
2.74578e-05 3.96718e-05 8.36339e-06
0.000138092 4.4375e-05 -0.000113321
1.28752e-06 -4.84216e-05 -2.68691e-05
-1.04297e-05 1.04187e-05 2.29615e-05
5.09326e-05 6.08644e-06 4.29514e-05
2.10777e-05 -7.28886e-06 -9.77384e-06
2.33116e-06 1.5342e-08 -5.82574e-06
8.90044e-06 6.34812e-07 4.75225e-06
-1.01602e-05 -7.44575e-06 -2.22825e-05
3.21858e-05 3.34348e-06 6.24764e-05
-2.30551e-05 1.73895e-05 0.000362077
2.2966e-05 6.94218e-05 5.36054e-05
1.23344e-06 3.25282e-06 2.29627e-09
1.06118e-05 6.68574e-05 -4.31579e-05
5.35236e-05 5.7651e-05 1.55509e-05
-1.25094e-05 1.95533e-06 1.78836e-06
-1.11643e-06 1.42699e-06 6.5428e-06
4.23917e-05 4.75544e-05 -3.02568e-05
-7.38728e-07 9.22764e-07 4.25863e-07
3.13787e-08 3.17555e-08 9.11328e-08
-8.9475e-07 5.84243e-07 -7.70599e-07
6.4879e-06 -3.17757e-06 4.81195e-06
4.11948e-07 -6.49513e-07 1.26943e-05
-3.28753e-06 -1.11986e-05 6.43002e-06
4.00107e-06 -1.44434e-05 -7.06953e-06
3.60634e-05 -1.66628e-05 5.1015e-05
-6.93826e-07 -1.74109e-06 5.92213e-06
-3.19278e-05 4.92152e-05 -0.000278699
7.24549e-05 2.16344e-05 0.000324093
1.2294e-06 -2.54811e-06 -6.02588e-06
-4.90963e-06 9.7595e-06 -5.6733e-06
-1.19294e-05 -7.43823e-06 1.55544e-06
2.43115e-06 2.95766e-07 -3.22757e-06
3.63304e-06 -7.01324e-06 -1.86417e-06
1.03392e-05 -7.22232e-06 1.68176e-06
-6.64894e-06 -1.39413e-05 3.43542e-05
2.34323e-05 -6.19166e-05 -4.04936e-05
-1.47734e-05 -5.32629e-05 -1.62955e-05
3.73046e-05 1.98738e-05 -2.83542e-05
2.24375e-05 -1.52668e-05 2.19494e-05
-1.24485e-05 -8.4625e-07 6.64914e-06
-6.11716e-06 8.07575e-06 -5.53366e-06
5.6856e-06 -5.99126e-07 1.21733e-05
4.96613e-06 6.43028e-06 2.95467e-06
-1.27201e-06 2.85796e-06 1.33711e-06
3.53052e-06 9.11216e-06 -2.38692e-06
7.01215e-06 3.32681e-06 -3.16108e-05
-1.5758e-07 -3.56948e-06 5.56315e-06
1.17599e-05 2.56115e-05 -1.06666e-05
-1.46386e-05 9.09498e-06 4.01509e-06
-9.76494e-06 -5.48968e-06 -2.06669e-06
1.28992e-05 1.07208e-05 1.91479e-05
-5.04329e-06 -1.18548e-05 5.84477e-06
6.10258e-07 1.27177e-05 2.36464e-06
0.000321987 -1.10152e-06 0.00144218
-8.53385e-05 -8.47208e-05 9.2802e-05
-1.95636e-05 1.08315e-05 3.24276e-05
5.79224e-05 -1.20787e-05 1.71626e-05
1.18035e-05 -9.65968e-07 3.613e-05
2.35501e-06 3.30922e-07 6.98571e-06
2.6609e-05 1.80749e-05 -1.61615e-05
-1.44114e-05 -1.67585e-06 6.66597e-06
1.53453e-05 4.15507e-06 -3.92142e-06
2.58734e-05 -3.29384e-05 9.8259e-06
3.69194e-05 -6.99027e-05 -4.12298e-05
1.21329e-05 -3.4418e-06 -1.08277e-05
6.1989e-06 6.06207e-06 1.40366e-05
-2.75044e-05 4.71425e-06 3.09912e-05
-7.17148e-06 -3.07849e-06 6.27339e-06
-5.41e-07 -4.3595e-06 -2.16211e-06
7.15095e-06 -1.67092e-06 5.52238e-06
-1.99807e-05 -3.42911e-05 2.36937e-05
1.41635e-06 -1.57543e-06 -5.28947e-06
1.7891e-05 6.09495e-06 9.99614e-06
1.87587e-06 4.38936e-07 -6.83727e-06
2.53448e-06 -3.60743e-06 3.35615e-06
-4.71316e-06 7.00796e-06 5.55625e-06
-6.86392e-07 3.9148e-06 -5.84062e-07
8.85058e-06 -3.77295e-05 -1.65403e-05
-0.000287938 0.000109859 0.00030366
0.000346631 -0.000401498 0.000181318
0.000220985 0.000194323 -0.000195902
-4.33252e-05 -2.58933e-05 -4.9096e-06
1.24519e-05 2.46513e-05 2.75982e-06
3.81444e-06 -1.9968e-05 -1.27306e-05
1.35094e-05 8.339e-06 1.05637e-05
-7.21302e-06 1.19841e-05 1.20448e-06
1.00972e-05 -8.39298e-06 -1.14569e-05
4.68623e-05 3.43438e-05 2.06918e-05
-9.4593e-06 -1.72514e-05 2.56624e-05
2.14099e-05 -3.57755e-06 8.50212e-06
5.83974e-06 -5.59472e-07 -1.14052e-05
-2.74916e-06 -2.56847e-05 4.7472e-06
8.56187e-06 -1.53401e-05 5.80263e-06
-1.38748e-05 -2.01203e-05 -1.52537e-05
-8.90513e-06 -1.84997e-05 1.23599e-05
4.09087e-05 7.9299e-05 8.53068e-05
3.15583e-05 -3.9228e-07 -4.60952e-06
-2.05741e-05 2.53014e-05 5.2498e-07
-4.50175e-07 -2.30232e-05 2.15187e-05
1.20897e-05 -9.23838e-06 -2.2212e-05
5.32182e-06 -5.70975e-06 4.17466e-06
-8.45934e-06 7.27816e-06 -1.23415e-05
9.53823e-06 2.29344e-06 1.31908e-05
-4.98136e-06 1.2449e-05 -1.25289e-05
1.64866e-05 -1.62714e-05 -9.55669e-06
3.15168e-05 -2.91359e-05 1.16486e-05
5.20118e-06 2.28537e-06 -3.08192e-06
-2.74121e-05 -1.4803e-05 1.64228e-05
1.32681e-05 3.87115e-06 -1.47626e-05
1.0564e-05 5.80807e-06 1.75531e-05
-4.94937e-06 -4.24763e-06 2.56918e-06
-2.52105e-06 4.01183e-06 -1.42465e-07
-6.83131e-06 -0.0001208 -4.43631e-05
2.10282e-05 3.70264e-05 -3.89824e-05
3.21611e-06 1.36728e-05 1.18029e-05
1.31064e-06 2.80867e-06 -5.91364e-08