<?xml version="1.0"?>
<VTKFile type="UnstructuredGrid" version="0.1" byte_order="LittleEndian" compressor="vtkZLibDataCompressor">
 <UnstructuredGrid GhostLevel="0">
  <Piece NumberOfPoints="1324" NumberOfCells="1324">
   <PointData>
    <DataArray type="Float64" Name="Elongation" NumberOfComponents="3"/>
4.72474e-07 -2.72679e-07 2.57207e-10
3.00556e-07 -1.13058e-07 1.16602e-10
-1.28174e-06 -5.04901e-10 3.28987e-06
5.68759e-07 -1.08669e-06 8.96844e-10
-1.41979e-06 7.05015e-10 8.16508e-07
9.11689e-08 -6.99261e-07 3.45142e-10
3.09342e-07 -6.32183e-07 3.93945e-10
-4.52622e-08 -1.19044e-07 7.34836e-11
3.32882e-07 4.68773e-13 1.61126e-05
9.36208e-08 2.3172e-07 -1.37372e-10
9.13881e-07 -1.2268e-10 7.23656e-06
3.23049e-07 -1.0548e-06 6.69396e-10
2.84297e-07 9.59307e-11 9.29316e-07
-7.72669e-08 -2.06243e-06 8.95231e-10
-1.54221e-06 -3.34941e-07 -3.04847e-09
7.60336e-07 8.04322e-07 3.58584e-10
2.14627e-07 3.55237e-08 3.43043e-11
3.12465e-07 1.3956e-07 1.18856e-10
1.79383e-07 -2.41399e-07 2.89477e-11
2.47539e-07 2.66874e-07 7.39364e-12
-3.20957e-10 -7.91489e-07 1.02076e-06
2.88363e-07 1.4144e-11 -1.03392e-05
7.88504e-07 -2.98088e-07 1.61219e-10
1.39846e-07 -1.17827e-11 9.13307e-06
2.86044e-07 -5.82348e-09 2.44186e-11
1.16881e-06 -8.13939e-11 8.88955e-06
2.4695e-09 -6.06069e-08 3.32647e-12
-1.89821e-10 -4.66249e-07 8.87391e-06
1.29934e-06 4.74493e-10 -6.97393e-06
3.3911e-07 -6.12219e-07 1.77497e-10
-1.11335e-06 -1.02925e-06 -9.32677e-10
1.25281e-07 6.89424e-07 5.24657e-11
3.32119e-07 1.01537e-07 5.3383e-11
-7.59992e-08 -1.02526e-12 -9.04178e-06
1.32855e-07 -2.42879e-07 -6.55966e-12
8.55633e-08 -3.31754e-08 2.52327e-12
2.6982e-08 3.32402e-08 4.38262e-12
3.27308e-11 5.60557e-07 3.12545e-06
-2.33669e-07 -4.95097e-08 -4.25758e-11
3.14658e-08 3.11221e-08 1.73407e-12
-3.20138e-08 -1.54475e-07 1.57355e-11
9.81168e-08 -2.15989e-07 7.34486e-11
1.32621e-07 -2.47782e-07 2.81313e-10
-4.24424e-11 2.4282e-07 3.70382e-05
-5.20873e-11 -8.26056e-07 9.99013e-06
-2.49858e-07 1.83677e-07 -4.20359e-12
-3.68128e-13 -1.19623e-06 4.00574e-06
1.10475e-07 2.00169e-07 2.42062e-11
-6.00896e-08 -6.76403e-08 -5.44273e-12
4.26331e-07 4.47364e-12 3.3704e-06
2.08346e-07 -1.14714e-07 6.40216e-12
-7.36214e-08 -4.01963e-12 -5.52037e-06
2.49423e-08 3.8074e-08 2.70336e-12
9.8086e-08 2.2923e-07 1.13656e-11
3.72463e-11 4.98261e-07 1.0516e-05
-1.27023e-06 -2.95904e-11 -6.19486e-06
3.03674e-07 -2.47468e-07 1.75678e-11
1.19904e-07 4.37467e-08 4.37884e-12
2.20451e-08 4.84445e-08 7.86599e-12
-3.32451e-07 -5.28625e-07 -2.13484e-10
-4.51736e-07 4.07247e-07 6.98337e-11
1.53893e-07 7.84559e-12 -1.21982e-05
1.4586e-07 -6.91003e-08 2.05758e-12
1.08945e-13 1.45953e-07 7.27287e-06
2.75258e-07 4.91519e-07 1.43873e-11
-1.23205e-11 3.41134e-07 -4.19671e-06
1.34311e-07 -1.32706e-12 7.24568e-06
2.63329e-07 -9.71484e-09 1.24059e-11
-1.23674e-07 -1.50511e-12 -5.1528e-06
5.67353e-08 -1.016e-07 6.96677e-13
-2.45544e-07 3.30813e-12 3.83512e-06
-1.63902e-09 -6.59456e-08 -7.15625e-13
-8.49793e-12 4.00571e-07 -1.06388e-05
-7.63395e-08 2.12911e-07 -1.01947e-11
7.28218e-07 -8.14064e-11 2.57208e-06
-7.12323e-08 -2.3056e-07 -1.71536e-12
1.6035e-07 -8.16244e-08 2.73904e-11
5.01492e-11 1.63109e-07 -9.13722e-06
-1.15974e-06 -7.44729e-07 -8.32831e-10
3.16957e-08 -5.25824e-13 -4.31383e-05
-1.5979e-07 3.88511e-07 2.04971e-10
1.90974e-07 3.23982e-07 9.25768e-11
3.89131e-10 1.3342e-06 -4.23104e-06
-2.64903e-07 9.0887e-08 8.59277e-12
-9.28635e-09 1.13372e-07 5.67916e-12
4.36485e-07 -1.42648e-08 -5.81617e-12
1.40699e-08 -3.10066e-08 4.939e-12
-5.7716e-08 -3.74391e-07 7.67405e-11
-7.69919e-08 1.93706e-07 -1.9719e-10
-1.03996e-06 -1.04433e-10 -8.49218e-06
3.03569e-07 -2.55906e-06 2.47073e-09
-6.06832e-07 -2.82535e-07 -4.02571e-10
5.71702e-07 3.36853e-07 -1.22649e-10
9.36189e-08 2.90718e-07 6.32823e-12
1.96599e-06 1.21772e-10 3.63459e-06
-1.01595e-07 9.34319e-08 6.98715e-13
-1.4928e-07 9.879e-08 1.52513e-12
-6.67123e-12 -1.39143e-07 -3.99049e-06
-1.6656e-07 -1.37591e-07 -2.9436e-14
-1.35815e-07 6.0349e-08 1.78555e-12
-6.12323e-11 -4.36736e-07 -1.27158e-05
1.63653e-08 2.20436e-08 2.42471e-12
-9.34298e-08 -1.64969e-07 9.01067e-12
-5.65729e-08 -2.42878e-07 9.89172e-12
-5.5206e-07 -3.65188e-07 -1.79354e-10
-5.13918e-11 -1.94277e-07 1.42164e-06
-8.83622e-07 4.17382e-07 3.59994e-10
-2.70296e-07 1.0611e-07 4.14242e-11
1.91102e-08 3.6644e-08 4.71389e-12
2.02957e-07 8.58234e-08 -2.04915e-11
-1.86108e-11 -5.77459e-07 -4.90932e-06
-1.85251e-07 -8.3878e-08 -3.38342e-12
2.2792e-07 -6.01621e-09 -1.25486e-11
6.92382e-08 3.62552e-12 1.0301e-05
-5.42899e-08 -4.28963e-08 2.89873e-13
2.87456e-06 -4.91811e-10 8.30051e-06
-5.17066e-08 -6.10384e-09 1.05396e-11
-8.58683e-08 -3.87438e-07 2.46365e-11
-5.31688e-07 3.8319e-07 -3.56504e-10
3.46377e-10 -9.87312e-07 1.30732e-07
-4.18174e-07 -1.87121e-07 9.25588e-11
-5.68245e-07 -2.34916e-07 7.89812e-11
-1.80012e-07 4.14838e-07 3.56042e-11
1.40252e-10 -1.51264e-06 -6.4418e-06
-3.40521e-07 -3.28023e-12 1.16322e-05
-8.50356e-07 -5.75807e-07 8.64609e-11
-1.39753e-07 4.27365e-07 6.12968e-12
1.41254e-11 8.10232e-07 -8.55583e-06
-9.85655e-08 3.68275e-07 3.57726e-12
8.41817e-07 -1.18985e-11 5.11922e-06
-1.81983e-07 -1.5601e-07 -7.98078e-12
1.62566e-06 -1.94226e-10 1.38712e-05
-5.76331e-07 1.07565e-07 1.38449e-10
-5.50499e-07 4.06524e-07 -6.96901e-11
8.52892e-10 -6.98793e-07 1.47507e-05
-5.16452e-07 5.95399e-10 7.18416e-06
-1.47932e-06 -1.36174e-06 2.38717e-10
-2.03812e-07 -1.5272e-06 -3.06798e-09
-2.9206e-07 -1.08153e-06 -1.67936e-09
-2.48296e-07 7.20415e-07 9.6954e-10
-3.20024e-07 -2.32868e-10 4.05682e-06
1.60018e-07 -8.47535e-07 -9.81755e-10
2.13996e-07 -6.8161e-07 -8.40447e-10
-4.66353e-07 -3.44954e-07 6.44579e-11
3.15499e-07 -5.08051e-07 -4.18103e-10
-1.06456e-06 7.127e-08 5.42977e-10
-1.02096e-06 -8.04311e-07 3.0781e-10
-1.232e-06 -9.89912e-07 1.44344e-09
-1.61433e-06 1.47316e-10 -3.64452e-05
-2.86586e-07 -2.93497e-07 -1.21966e-10
3.76232e-08 2.37937e-07 5.36719e-12
-2.86728e-07 7.93884e-08 -9.43472e-11
-4.82837e-08 2.4121e-07 -5.01997e-11
-1.09251e-08 1.25432e-07 -3.00396e-11
-1.55869e-07 3.93246e-07 -1.2991e-10
-8.64384e-08 3.83132e-07 -1.17868e-10
-9.55962e-09 1.00871e-07 -3.16596e-11
-6.25354e-07 5.21047e-11 -5.72524e-06
1.5897e-07 9.10588e-08 -5.08067e-11
-2.09753e-07 4.55939e-08 -9.21176e-10
-7.36469e-07 -6.38167e-07 -3.50114e-10
-1.06578e-07 2.18696e-08 -4.41136e-12
-3.95498e-08 -3.21493e-07 -2.17895e-11
-1.35332e-07 -1.23746e-07 -2.27362e-11
-4.70334e-06 1.661e-09 1.02735e-05
-1.28134e-08 1.49927e-07 1.84374e-11
8.89659e-08 -5.48777e-12 -1.53201e-05
-2.07487e-07 4.9444e-08 -1.79548e-11
1.08168e-06 2.06029e-10 1.32354e-05
-2.36252e-07 -1.38336e-07 -2.58476e-11
7.45775e-07 -1.07169e-10 -1.16722e-05
6.42318e-08 1.03725e-09 1.01605e-11
-5.84161e-10 -6.97202e-07 -1.24708e-05
4.8691e-07 2.55496e-11 -1.11052e-05
-3.37834e-08 1.09462e-08 3.14448e-12
-2.12978e-07 -4.20199e-08 -7.32668e-10
-4.71856e-07 -7.72332e-07 -4.27588e-10
-2.07914e-07 1.68467e-07 1.24687e-11
3.98649e-11 2.00201e-06 -2.1851e-07
1.86383e-06 -8.98475e-10 3.90744e-06
-1.25863e-07 -2.95085e-08 -1.77803e-11
-5.59348e-08 1.36364e-11 9.05718e-06
-1.18376e-07 -3.27547e-08 -1.1775e-11
2.65863e-08 7.59519e-10 -5.38593e-14
-6.27782e-08 9.64725e-09 -7.01964e-12
-1.15374e-10 2.39479e-06 -4.99815e-06
-3.63362e-09 -8.23644e-08 -4.23772e-13
-4.12312e-12 3.19975e-08 7.54e-06
-5.11447e-08 -2.20146e-09 -8.43721e-12
2.20836e-07 9.68022e-12 -2.49614e-07
1.47758e-07 -5.64514e-08 -6.54357e-13
6.43764e-11 -2.4841e-06 -5.65083e-06
-1.18984e-06 -5.60924e-07 -3.42481e-09
-1.14959e-05 -4.24003e-08 -8.70987e-06
1.2155e-11 -3.51616e-07 2.44712e-05
-4.72224e-07 -1.18074e-07 -3.13093e-10
-2.0777e-07 -1.78777e-07 -1.36891e-11
1.85866e-08 5.01944e-08 4.63133e-12
2.0527e-11 -2.20971e-07 4.40795e-06
5.57976e-07 -5.95647e-12 -2.88514e-06
-7.20961e-08 1.21791e-07 1.00346e-12
3.3753e-07 -2.32672e-11 -3.47129e-06
5.42158e-08 -8.55312e-08 -3.35221e-12
-3.53414e-08 -4.01365e-08 -3.01155e-12
-9.44083e-08 1.35259e-07 -3.20407e-12
-7.01723e-12 -4.01473e-08 -1.14429e-05
-1.09035e-07 -4.4349e-12 7.71516e-06
-2.07271e-07 -2.15206e-08 -2.2758e-11
4.48615e-08 -1.08636e-08 5.92519e-12
6.26035e-11 2.85676e-07 -2.18857e-06
-1.88525e-08 -5.69664e-07 -5.42722e-10
-1.23474e-07 7.52846e-12 -4.24043e-05
1.16126e-07 -6.25179e-07 -3.41973e-10
2.31348e-09 -1.26774e-07 -2.8069e-11
-1.65873e-09 -4.16338e-06 6.43545e-06
-2.16275e-08 5.99111e-08 -1.25907e-12
-4.51261e-07 -3.09705e-08 -2.78667e-11
-5.47563e-11 6.66825e-07 3.68773e-06
2.48075e-08 -8.30012e-09 -3.09315e-13
2.31431e-08 -1.11065e-07 9.75591e-13
-6.02328e-07 1.93386e-11 -4.97104e-06
-6.96989e-08 2.48712e-07 -5.99593e-12
-1.10251e-12 -1.40083e-08 1.20056e-05
-7.9554e-07 -1.13828e-10 3.467e-06
-1.82511e-08 -8.49941e-08 6.46843e-12
-3.24677e-11 2.37929e-07 3.308e-06
-1.01464e-07 6.86324e-08 -2.26106e-11
-8.29795e-07 8.07395e-08 -2.11102e-09
-2.81779e-08 -4.31473e-12 4.09691e-05
-1.84637e-07 -8.87633e-08 -7.64722e-11
-1.03802e-07 -1.03909e-07 -4.12635e-12
-1.60589e-07 3.36642e-08 -9.05733e-12
-1.78962e-06 -2.97623e-11 -4.71065e-06
-1.22267e-08 -1.3586e-08 -4.48043e-13
8.12996e-12 8.62228e-07 7.36341e-06
2.43881e-07 5.337e-08 -2.06039e-11
-3.33056e-08 -5.85472e-08 1.00543e-11
9.92706e-08 2.59182e-07 -2.04882e-11
5.93743e-11 -2.54762e-07 -1.37512e-05
-8.72347e-07 -1.6585e-10 4.93008e-06
-9.45805e-09 4.00699e-07 -1.97774e-10
-4.72738e-08 9.11068e-07 -4.54803e-10
-1.59585e-06 -1.5375e-10 6.12723e-06
-5.58029e-07 8.48122e-07 -2.71835e-09
-1.80478e-07 -3.4731e-12 -3.80152e-05
-3.25875e-08 -4.47181e-07 -1.83855e-10
-2.12446e-07 -2.50965e-07 -4.02377e-11
1.11602e-07 -2.46687e-07 -1.32129e-11
-8.93686e-11 5.88554e-07 -7.78285e-06
3.96964e-08 -2.42304e-07 -2.86127e-11
-9.40259e-11 -7.71523e-07 -1.4967e-05
8.17626e-09 -1.70453e-08 -2.84262e-12
-1.1898e-09 -3.19106e-06 5.78537e-06
1.68256e-06 -2.75783e-10 -8.07282e-06
9.90145e-08 -5.33644e-08 -2.02867e-12
-6.40302e-11 -2.46762e-07 -2.6038e-06
-2.63911e-08 -8.51349e-08 -3.35369e-13
5.35388e-08 1.56108e-07 -3.87207e-12
1.49518e-06 -4.22561e-10 2.22541e-06
1.12996e-07 1.83767e-07 -1.24955e-11
-2.73432e-07 3.84032e-07 -7.1323e-10
-2.12088e-07 -3.70598e-12 1.94695e-05
-1.02485e-07 -1.09093e-07 -1.10057e-11
8.07188e-08 1.04692e-07 1.27273e-11
1.14415e-11 2.43828e-07 8.09027e-06
-1.44417e-06 3.89617e-12 1.16099e-05
2.945e-08 2.49343e-08 -2.05688e-13
1.9844e-07 -3.75858e-08 5.40549e-11
-3.3575e-12 9.76802e-08 -1.44767e-05
-1.02208e-07 -7.52844e-09 7.2469e-12
2.61618e-07 1.01408e-08 -8.09852e-12
3.30435e-08 8.58781e-08 -1.98243e-12
9.91265e-08 -2.02158e-07 -8.30499e-12
1.83457e-08 3.22627e-07 5.03558e-13
1.91264e-07 3.69335e-11 3.59921e-06
-8.51343e-08 5.99777e-07 -4.23315e-10
-9.44073e-12 -3.67837e-07 -3.28805e-05
-3.11626e-07 -1.43536e-07 -1.50272e-10
8.20308e-08 -4.00651e-07 -2.58579e-10
1.97658e-07 1.59643e-07 1.78714e-11
-3.09602e-07 -3.59426e-07 -2.31238e-10
6.57783e-07 -3.97539e-07 -4.63105e-10
-3.23046e-07 -2.4908e-07 -4.21196e-11
1.88992e-07 5.48099e-08 2.04791e-11
4.20615e-07 -2.66481e-07 -1.12456e-10
5.31182e-08 1.5575e-07 2.1645e-11
-7.61023e-08 -8.76706e-09 -8.87907e-11
1.42152e-11 -2.0182e-07 -4.03656e-05
-2.12129e-08 -2.62681e-07 -1.15184e-09
-5.87113e-07 -3.15908e-07 -1.47826e-09
-4.94661e-08 -1.07879e-05 3.72521e-06
2.55213e-07 -5.69067e-07 -1.40684e-09
6.62222e-08 -1.18494e-06 -2.776e-09
4.03385e-07 -2.40786e-07 -8.71972e-10
7.92451e-07 -5.33662e-07 -2.15875e-09
-3.14405e-07 -4.89265e-07 -9.41962e-10
1.36417e-06 -1.39719e-07 -1.48184e-09
-5.77402e-08 6.61548e-07 5.3136e-10
1.31656e-06 9.49689e-07 -2.02351e-09
2.41054e-07 1.25708e-06 1.35966e-09
-1.67441e-07 6.68192e-07 1.01054e-09
-6.9548e-07 4.59962e-10 2.18336e-06
-6.44868e-07 5.89096e-07 1.02852e-09
1.79013e-07 7.68971e-07 8.32735e-10
-1.22073e-07 7.2539e-07 7.09115e-10
5.67931e-07 7.25151e-07 9.81127e-10
-9.72843e-08 6.17226e-07 6.50731e-10
-2.18708e-07 1.18138e-06 1.21732e-09
6.52362e-07 7.95123e-07 8.64903e-10
9.26325e-07 -2.51076e-07 5.3544e-09
-1.83659e-11 -6.02525e-07 -4.09732e-05
2.39566e-07 2.74696e-07 1.20722e-10
-3.70777e-08 -2.51312e-08 3.16825e-12
-1.08496e-07 1.7654e-07 6.20154e-11
1.60209e-08 -6.78379e-08 -2.08334e-12
-1.82488e-08 5.45498e-08 8.53695e-13
-4.09637e-07 1.53911e-07 7.30744e-11
-4.44927e-09 -9.57881e-08 3.66163e-12
3.23298e-07 -1.22924e-07 2.26197e-11
-9.66883e-08 4.17009e-08 -1.19373e-12
5.94193e-07 9.1835e-07 3.60914e-09
-4.3969e-08 -4.37956e-07 -1.04049e-11
-2.14906e-07 1.22853e-07 1.00115e-11
-4.45149e-07 9.71703e-08 1.52936e-11
-7.83407e-11 1.28585e-06 -3.41693e-06
1.90804e-07 -7.88535e-12 -5.70875e-06
1.01766e-07 -9.58393e-08 6.57227e-12
1.72086e-11 8.23556e-07 -2.56346e-07
2.46475e-07 -1.24022e-12 5.62639e-06
1.90676e-08 -7.8436e-09 -4.02814e-13
-2.11036e-08 -2.85226e-09 6.12407e-12
-3.14426e-09 3.81643e-08 2.71646e-12
-9.72724e-08 4.40057e-08 1.74318e-13
-1.20327e-10 -1.09107e-06 7.59611e-06
-1.1027e-07 1.00075e-07 2.4027e-11
1.53537e-06 2.35439e-08 4.30299e-09
-1.30791e-11 -2.34125e-07 1.76896e-05
-1.21751e-07 2.99512e-07 3.03589e-11
-2.05141e-07 -1.67876e-07 2.3388e-11
1.42207e-08 1.34495e-07 1.85317e-12
-5.66523e-08 7.46637e-08 1.30837e-13
1.04872e-11 5.41008e-07 3.95641e-06
4.87601e-09 5.38572e-08 1.27574e-12
-1.07766e-07 -2.14802e-07 3.25415e-12
-9.35274e-07 7.69847e-11 4.86367e-06
-9.85209e-08 9.92936e-08 -1.90237e-12
-6.88956e-08 -6.3295e-09 -3.82362e-12
9.47074e-10 -4.67807e-10 3.8856e-14
9.88756e-08 1.55248e-07 2.84286e-10
-1.88407e-10 -3.42867e-07 8.66584e-06
-1.96202e-05 -1.28966e-07 5.82285e-06
-2.79515e-13 2.98109e-08 -1.73751e-05
2.93065e-07 1.81603e-12 -1.35849e-05
4.39522e-08 -4.09237e-07 6.52361e-11
1.2384e-07 -3.11534e-07 1.02062e-10
-6.3349e-08 -9.6451e-10 2.7002e-12
3.68398e-11 -5.20411e-07 8.67555e-06
-3.2054e-07 -1.05535e-08 -9.39461e-12
-7.57153e-12 9.24375e-08 -3.27516e-06
6.25174e-08 -3.79108e-08 2.90628e-12
-6.43531e-11 6.16755e-07 -9.14567e-06
-6.18677e-09 -5.01426e-08 7.41144e-13
-5.78462e-08 -3.06411e-08 3.88919e-12
7.87839e-08 1.61866e-07 1.26928e-11
-2.26773e-07 1.4211e-07 6.2148e-11
9.13085e-07 6.82608e-07 3.06213e-09
-4.44012e-12 7.58174e-08 -2.89997e-05
-3.434e-08 7.80558e-13 2.21812e-05
-2.58833e-07 3.59343e-07 -5.806e-11
-2.79057e-08 -5.83744e-08 6.846e-12
4.17265e-11 2.68876e-07 3.11653e-06
-5.39544e-08 -7.12356e-08 2.3521e-11
9.33638e-08 1.39788e-07 3.3602e-12
1.18829e-06 1.40723e-10 -2.51997e-06
-1.12268e-07 2.27769e-07 4.60409e-11
4.37207e-12 5.0014e-07 7.87223e-06
-1.09834e-07 -9.17348e-08 -2.9333e-11
-9.10257e-07 8.1993e-11 1.35513e-05
1.4466e-07 4.97779e-07 1.04127e-10
3.19172e-09 6.3545e-07 9.48363e-10
-2.6913e-06 -7.18901e-10 1.9493e-06
-7.86011e-08 7.40764e-07 6.88278e-10
6.95388e-07 3.23325e-07 1.67489e-09
7.13377e-12 1.45015e-07 3.08803e-05
-4.69351e-07 6.2435e-12 -1.69655e-05
7.52781e-08 1.17455e-07 2.13018e-11
-1.56581e-07 -7.52299e-08 -2.78959e-12
2.4506e-11 -1.2668e-07 -7.77112e-06
-6.10013e-08 1.43712e-07 4.79641e-12
3.6004e-09 -1.01773e-08 -2.7319e-14
8.10641e-07 7.19059e-11 -4.67983e-06
1.02362e-07 2.67238e-08 2.92889e-12
1.70659e-06 -1.95086e-10 6.7053e-06
5.02821e-08 -3.2787e-08 -4.12929e-13
-7.46718e-08 -2.87459e-07 3.11542e-11
-2.67042e-11 4.07615e-07 -7.08166e-06
3.98697e-08 1.5293e-07 -7.01805e-12
1.94403e-08 -1.66961e-07 1.6484e-11
-1.81713e-09 -4.30604e-06 5.21375e-06
-9.66154e-07 2.89385e-11 2.13814e-06
5.97716e-07 2.26433e-07 1.52552e-09
-2.0332e-08 -9.36051e-08 -1.34128e-12
5.93784e-07 4.45618e-08 9.48061e-12
-2.26362e-08 -1.728e-09 -1.13504e-13
7.74857e-11 1.17319e-06 6.37866e-06
9.77829e-08 1.40309e-07 3.82678e-12
1.20969e-08 7.59503e-08 6.07291e-12
-1.23336e-07 6.90138e-08 9.10773e-12
-1.30534e-07 -1.49689e-08 1.47022e-11
-1.38921e-10 -9.30071e-07 -5.54404e-06
2.13639e-07 -2.12314e-07 3.8218e-11
2.9917e-08 6.98202e-08 4.84824e-12
2.16177e-07 8.88707e-08 4.89165e-10
4.12935e-13 -1.14661e-07 2.44687e-05
-1.36031e-07 -2.79624e-08 1.90195e-11
-2.71449e-07 -2.46314e-09 -1.86119e-11
1.43883e-09 2.04974e-06 1.99907e-06
1.43245e-07 1.03862e-07 5.12e-11
1.08251e-07 -2.7898e-08 -8.7836e-12
-8.53399e-09 -7.68631e-09 -9.69812e-13
-2.2753e-07 -1.00815e-07 1.00859e-10
-6.76835e-07 -2.41444e-07 3.5544e-10
6.63708e-07 -4.70178e-07 2.66104e-10
3.78247e-07 1.60513e-08 1.63033e-10
2.6132e-07 3.28673e-07 3.62897e-10
-9.83542e-12 3.22422e-07 3.4829e-06
-3.10009e-07 9.42423e-07 5.47946e-09
-6.81301e-08 7.24303e-07 3.21084e-09
1.49491e-07 8.97942e-07 2.67486e-09
-7.2982e-07 9.79311e-07 3.44502e-09
3.34854e-07 5.20587e-07 1.50522e-09
3.27972e-07 7.10442e-07 1.67019e-09
-8.78447e-07 9.61182e-07 3.14039e-09
2.08674e-08 -1.90805e-08 -4.0415e-11
3.24458e-07 -3.29579e-07 -2.69261e-10
-6.82554e-07 -6.84222e-07 6.16074e-10
-2.40818e-08 2.49338e-07 -1.59949e-11
-6.15118e-09 8.51827e-08 -1.65134e-11
6.86384e-08 -3.28326e-08 3.39068e-13
9.00995e-08 7.29034e-08 -1.2496e-11
-1.95616e-09 3.1335e-08 -1.01013e-12
-4.56257e-08 9.47636e-09 2.84025e-13
-1.1085e-07 1.13989e-07 -6.60332e-12
1.35076e-08 -2.20718e-08 -2.39844e-13
-1.17683e-07 -2.10984e-07 -6.19109e-11
-1.20257e-06 3.34508e-07 -8.11951e-09
1.22031e-11 -9.70804e-07 3.43512e-05
9.88779e-08 8.00004e-08 2.40638e-11
-6.9378e-08 -4.73791e-08 -1.53022e-11
5.50917e-09 -1.23647e-08 -3.34079e-14
1.7023e-08 3.25625e-09 1.45629e-13
-4.87121e-08 3.72239e-08 -6.722e-12
1.52463e-07 -6.21272e-08 -1.5838e-12
2.26125e-08 -9.50536e-08 2.95903e-12
4.697e-07 7.83081e-11 -1.00198e-05
1.08221e-08 8.52798e-08 8.64936e-12
1.18545e-07 6.32214e-12 -1.08911e-05
-1.80673e-07 8.99043e-08 -9.42936e-11
2.80124e-06 1.77032e-09 6.91803e-06
-7.94892e-07 -3.08342e-08 -3.99932e-09
1.5508e-11 -7.8649e-07 2.48496e-05
-6.92108e-08 7.1294e-12 3.56052e-05
5.32112e-07 2.76222e-07 -4.30896e-10
3.00711e-08 6.79196e-08 1.80681e-12
-1.13477e-07 6.475e-09 -9.71407e-13
1.61027e-08 -7.8087e-08 2.86956e-13
-1.37543e-07 7.48392e-08 -1.13298e-11
3.69153e-07 6.12993e-12 6.10184e-06
-1.40409e-07 -9.20348e-08 -4.40811e-12
-2.35375e-08 2.54867e-08 -1.22598e-12
-1.01831e-07 -3.21034e-09 -3.07905e-12
-3.21074e-07 4.68391e-08 -1.94689e-10
-1.35772e-07 4.27814e-07 -7.8251e-10
-7.26923e-12 -2.39907e-07 -3.74903e-05
2.96846e-07 2.66797e-12 3.37932e-05
4.67791e-07 -1.62949e-07 -4.33218e-10
-6.71034e-08 -1.2503e-08 -9.05964e-12
-1.32001e-09 -1.69895e-07 -2.84262e-12
9.24052e-08 -8.2278e-08 -6.4855e-13
1.72412e-11 3.95349e-07 -3.38197e-06
3.21701e-09 -2.1492e-12 -2.54394e-06
-9.18688e-08 2.73418e-07 -2.56188e-12
8.1763e-12 3.44312e-07 -5.52224e-06
1.61553e-07 8.07477e-12 4.47733e-06
3.77325e-09 -6.0504e-08 3.69934e-13
2.49054e-11 4.29803e-07 8.10916e-06
6.29564e-08 -1.24409e-07 -2.9755e-12
5.91514e-08 9.42114e-09 2.94961e-12
9.58218e-07 1.94385e-11 6.59529e-06
-9.55383e-08 1.95014e-07 -4.42202e-12
-1.75483e-06 -4.83021e-07 -5.37324e-09
-9.37907e-13 -8.14741e-08 1.53872e-05
1.36303e-07 6.92905e-07 -5.16155e-10
3.09788e-08 -4.83779e-08 3.72406e-12
-2.45075e-08 2.79589e-09 -1.20935e-12
-8.23121e-07 -5.38809e-11 5.25664e-06
7.10573e-08 -5.21522e-09 -1.535e-13
2.72058e-07 1.15556e-11 -8.27309e-06
6.42572e-08 1.88189e-08 7.65887e-12
-3.78983e-11 4.23427e-07 7.63417e-06
1.83751e-07 1.19189e-11 5.08877e-06
-4.7194e-08 2.79273e-08 -4.1133e-13
-7.77456e-07 1.30764e-10 -3.43342e-06
-4.45242e-08 -5.38386e-08 -3.34307e-12
-4.47801e-08 3.92275e-09 -1.8094e-12
-1.52876e-07 -6.09775e-12 -2.04308e-06
-1.14552e-07 1.0327e-07 -4.49445e-11
-9.6397e-07 3.007e-08 -2.73554e-09
3.84048e-12 6.89345e-08 4.11578e-05
3.82348e-07 -4.97009e-07 -4.26687e-10
-3.59901e-08 -1.28841e-07 -3.12137e-11
-2.86219e-08 -9.16121e-08 -3.55424e-11
9.5091e-09 -3.90397e-07 -8.98094e-11
-1.9286e-07 2.45922e-07 3.55878e-11
-3.05132e-06 -9.42063e-10 5.5555e-06
5.37846e-08 -1.08512e-07 -2.17807e-11
3.51924e-10 1.75777e-06 -3.07734e-06
4.3629e-08 -5.72311e-08 -6.62919e-12
-1.11905e-07 1.30469e-07 5.24688e-12
7.15986e-11 7.75458e-07 -3.06002e-06
-2.89101e-08 -2.85907e-07 -5.71195e-11
-9.37246e-07 -5.94755e-07 -2.74379e-09
1.41268e-12 -8.31464e-09 -3.38253e-06
2.85556e-07 1.88698e-07 -2.31435e-10
-4.86775e-08 -2.37792e-08 1.02384e-12
-3.11402e-08 1.30182e-07 1.32695e-12
2.65549e-07 2.03835e-11 -4.44093e-06
3.27555e-08 4.08952e-08 -1.61284e-11
-7.72625e-08 -8.19815e-08 6.82946e-12
-2.56873e-06 -6.42868e-10 -3.69146e-06
-7.70173e-08 4.20516e-08 -1.91578e-12
-6.95496e-07 1.30456e-10 6.4775e-06
-4.92938e-08 2.83971e-07 -1.23436e-12
8.6989e-07 -8.33748e-11 -3.44309e-06
3.68258e-08 1.06096e-07 5.11194e-13
-4.55286e-10 1.77402e-06 -3.508e-06
-4.01169e-08 -1.75188e-07 -1.94289e-12
-8.21401e-07 -2.08723e-07 -2.39119e-09
2.40987e-07 -1.55704e-07 -1.75355e-10
3.21809e-07 8.71807e-09 -1.86775e-11
-5.08013e-08 -2.36131e-08 -4.86177e-12
1.95882e-07 -1.82437e-07 -1.10501e-10
-1.14842e-07 -5.56891e-08 -2.89272e-11
3.72923e-08 -2.5999e-09 1.17542e-12
-2.2051e-10 -9.70962e-07 -3.69445e-06
-2.8832e-07 5.25201e-11 5.48268e-06
2.59672e-08 6.33356e-08 2.76481e-12
-2.02639e-10 -9.23736e-07 3.97778e-06
7.87663e-07 -7.56391e-11 -4.9452e-06
-4.26456e-08 3.38757e-08 -6.46449e-12
-7.92951e-09 -1.00481e-07 -1.0007e-11
-4.94509e-08 -5.12055e-07 -3.73999e-10
2.42369e-13 -2.01474e-08 1.54842e-05
4.00636e-07 1.60353e-07 -2.48592e-10
-1.92693e-07 2.42714e-07 -6.77395e-11
-2.32067e-08 2.29036e-07 -6.112e-11
-1.45438e-06 -2.29442e-10 8.83008e-06
2.74924e-07 1.08985e-07 -1.61117e-10
-6.04609e-07 3.42652e-07 -4.09745e-10
3.35778e-08 4.57897e-07 -4.85278e-11
1.18444e-07 3.55942e-08 -2.09079e-11
-5.51779e-07 3.29719e-07 -1.84881e-10
-9.44357e-08 3.59778e-07 -1.15386e-10
-5.26804e-07 -3.03836e-07 -1.10316e-09
1.90575e-11 4.30827e-07 7.70407e-06
-4.28697e-07 8.40071e-12 2.86742e-05
3.29608e-07 -1.14319e-06 -7.64754e-09
8.01574e-07 -8.20641e-07 -5.13817e-09
8.91915e-08 -7.41874e-07 -2.29597e-09
3.42111e-07 -8.38344e-07 -2.69441e-09
-3.7752e-07 -7.63324e-07 -2.44825e-09
-5.23492e-07 -8.71343e-07 -2.55069e-09
7.11199e-07 -8.14214e-07 -2.74838e-09
-1.00754e-06 -1.79416e-08 -7.60212e-10
2.78653e-07 -5.84153e-07 -1.48232e-09
5.58599e-08 2.01487e-07 9.79978e-11
-5.85481e-10 -1.2625e-06 1.66551e-05
1.26146e-06 1.01406e-11 -2.84915e-05
-9.76588e-08 -3.06347e-07 1.1793e-10
6.55697e-08 -4.5057e-07 3.2468e-10
1.75554e-07 -6.57668e-08 8.75714e-11
-1.68348e-07 -3.93429e-07 2.64755e-10
1.15796e-07 -2.49579e-07 1.20053e-10
-3.14689e-07 -3.52439e-07 2.76984e-10
5.19688e-07 -6.23097e-11 -5.72019e-06
1.57069e-07 -3.14766e-07 1.7983e-10
7.87432e-08 -6.28346e-07 4.71098e-10
-5.89366e-07 -2.57805e-07 3.5869e-10
8.92416e-07 5.16993e-07 6.41216e-09
-5.0171e-11 -9.69351e-07 6.9236e-06
-5.17611e-07 -5.44032e-07 3.64771e-10
-1.31352e-08 -7.8706e-10 -3.19958e-13
1.74773e-08 -8.2863e-08 3.1237e-12
-2.35132e-08 2.49596e-08 2.68503e-12
-1.30113e-07 1.08994e-11 -2.63595e-06
-4.39867e-08 4.69662e-08 9.35983e-12
1.02374e-07 -4.67245e-08 1.17164e-11
-1.07753e-07 -8.9831e-08 -5.39367e-12
-8.06113e-08 1.65172e-07 1.82634e-11
-7.99244e-08 -2.83811e-09 3.46379e-12
6.34048e-07 -4.89622e-07 3.95177e-09
3.18746e-08 -2.50851e-07 1.96534e-13
3.66631e-09 4.83541e-08 6.34018e-12
2.8074e-07 -1.00784e-08 1.93865e-11
6.83462e-08 -1.03747e-11 -4.52957e-06
-9.55637e-08 -8.9077e-10 -9.12046e-13
-9.56447e-12 5.07943e-07 -7.60217e-08
-6.29845e-08 4.1301e-08 1.65224e-12
1.13477e-07 7.18824e-08 2.764e-11
-2.76688e-08 1.82422e-08 2.1043e-12
-5.88779e-08 2.55292e-08 -5.5633e-12
-1.42198e-07 6.2932e-09 -4.94816e-12
-1.25532e-10 -1.3937e-06 6.89758e-06
-4.74563e-08 2.2519e-07 -4.25719e-11
-2.43256e-11 -5.49666e-07 2.61771e-05
8.13217e-07 1.3674e-11 -3.02151e-05
1.85018e-07 -1.04485e-07 5.18746e-11
4.519e-08 1.02869e-07 6.07456e-13
-3.97734e-08 -1.86287e-07 -2.48211e-12
1.27634e-10 -1.23789e-06 -4.57586e-06
1.85233e-07 4.09187e-12 7.68627e-07
2.55302e-08 -2.29823e-08 -3.03722e-14
-2.89367e-08 1.05856e-07 -1.00944e-12
1.03403e-07 5.59789e-08 1.91504e-11
-2.79361e-08 -4.78345e-08 6.16868e-12
2.03221e-07 3.71421e-08 1.80336e-11
6.13188e-08 -6.24022e-08 8.38845e-12
1.5157e-06 6.41784e-10 3.02602e-06
8.21169e-07 4.47326e-07 2.3576e-09
3.60213e-07 -9.52594e-13 9.91074e-06
5.97439e-08 2.60176e-07 5.49034e-11
-7.95193e-08 1.62169e-07 2.77864e-11
-2.40585e-08 -5.50576e-08 -7.92668e-13
-3.87356e-08 -1.11145e-08 1.06197e-13
4.17687e-08 5.78196e-10 -2.10291e-12
6.05783e-07 -9.4483e-12 -3.90808e-06
-2.17333e-08 2.9961e-08 -5.04419e-13
-5.38543e-08 -7.17413e-08 6.28315e-12
-1.03934e-07 -4.98165e-08 -8.1339e-12
1.48733e-11 -8.65979e-08 -1.55778e-06
1.31811e-07 -1.00754e-07 5.69242e-11
7.52485e-07 -1.61065e-07 2.1594e-09
9.1992e-12 8.48766e-08 -2.95961e-05
1.8682e-07 6.88038e-12 2.82521e-05
2.15045e-07 -2.86379e-07 1.18109e-10
5.21102e-09 -2.5701e-08 1.80362e-12
-1.59804e-06 -3.26125e-10 3.55078e-06
5.5121e-09 -9.70531e-08 -1.193e-12
-1.11766e-06 -1.07487e-10 6.72371e-06
-6.5732e-08 -3.97061e-07 2.15342e-11
1.1883e-07 1.23612e-08 -1.38456e-11
7.70083e-08 -7.93835e-08 1.6357e-11
9.04743e-08 -1.38088e-07 2.68692e-11
5.91489e-08 -4.02037e-07 2.16122e-10
-5.89468e-09 1.50117e-07 -2.05616e-11
9.27982e-07 1.19028e-07 2.73517e-09
-1.1477e-12 4.82493e-08 -1.75654e-05
-7.76891e-08 7.54104e-13 -4.1169e-05
1.70718e-07 -1.33975e-07 6.49731e-11
6.26302e-08 6.07843e-08 8.44855e-12
5.61554e-08 -2.50576e-08 4.04706e-12
4.73224e-08 -5.18698e-08 -1.07979e-12
-1.31002e-08 -4.02793e-08 -2.4735e-12
2.75145e-11 -4.83588e-07 -2.27305e-06
-4.1343e-08 3.66185e-08 -1.2934e-12
-7.7399e-08 2.70748e-07 -7.70524e-12
-4.31911e-11 7.66837e-07 -8.639e-06
-2.55202e-08 -6.60512e-08 -3.82283e-12
-3.61516e-07 -2.12716e-11 -1.76711e-06
5.80788e-08 1.2224e-07 1.33209e-11
6.88849e-07 -5.93913e-08 1.93325e-09
-8.52625e-12 -9.27773e-08 -4.24238e-05
-1.23773e-07 8.39415e-12 1.57457e-05
2.27577e-07 -9.90551e-08 5.92931e-11
-3.23495e-07 7.12079e-08 -2.76905e-12
-1.26096e-11 2.88228e-07 -4.02587e-06
6.72711e-09 -1.79527e-08 1.66072e-13
1.52134e-07 -5.03639e-08 3.77627e-11
-1.29434e-07 -9.77784e-08 -1.23882e-12
1.06068e-07 -2.92778e-08 3.81776e-12
1.30233e-07 8.91299e-08 1.22208e-11
-3.0318e-07 5.9807e-08 8.01745e-11
1.37097e-08 4.01755e-08 5.91863e-12
3.87116e-07 -4.34842e-07 1.11598e-09
-9.3147e-12 -1.55703e-07 -1.30514e-05
3.4825e-08 8.52951e-12 -2.55832e-05
1.22009e-07 8.05727e-08 5.97599e-11
1.95765e-07 -1.83152e-08 4.28077e-12
-1.62545e-07 2.89814e-08 3.50741e-11
1.34159e-07 6.85953e-08 4.65431e-11
1.89542e-08 -7.96349e-09 -5.27501e-12
1.0145e-07 -5.70086e-08 4.39304e-11
6.5149e-07 2.30787e-07 5.0018e-10
-2.45993e-07 2.13499e-07 1.39077e-10
2.2149e-07 1.17255e-07 1.33234e-10
5.3207e-07 4.46815e-07 1.54873e-09
1.90274e-11 -4.81346e-07 3.08339e-05
4.85961e-07 9.10882e-07 6.52058e-09
2.22395e-07 7.3006e-07 3.90125e-09
-2.47456e-07 2.59697e-07 9.28402e-10
3.03092e-07 5.3876e-07 1.65631e-09
-3.04527e-07 8.37875e-07 2.59369e-09
4.52314e-08 7.43253e-07 2.17755e-09
2.47661e-07 2.12075e-07 7.17103e-10
4.93229e-07 9.0003e-08 4.22405e-10
3.46974e-07 7.2359e-07 1.8111e-09
3.78877e-07 2.03526e-07 9.25949e-10
-8.52083e-07 1.48216e-11 -2.15424e-05
-1.3937e-07 1.71576e-12 4.43334e-05
-3.72594e-08 -6.99641e-08 1.36029e-11
-1.0733e-08 3.35291e-08 3.70969e-12
-9.91615e-08 6.26945e-08 2.54564e-11
-9.73911e-09 1.067e-07 2.33689e-11
-4.66082e-08 1.53079e-08 7.74338e-12
-7.24612e-08 3.23351e-08 1.20967e-11
-6.44692e-08 6.1407e-08 1.00481e-11
6.17265e-09 -1.02103e-07 -1.22642e-11
2.55434e-08 1.21901e-07 1.21775e-11
5.39219e-07 4.90268e-07 4.06644e-09
-2.77086e-11 -3.84367e-07 -4.15193e-05
-3.91995e-07 -3.67754e-07 2.1718e-10
-1.2154e-07 -3.33749e-08 2.71169e-11
-4.81089e-08 -2.23882e-07 1.29331e-11
-5.3761e-07 -2.98638e-11 -5.50631e-07
-4.73718e-08 -1.24686e-08 1.94159e-12
1.28894e-08 -2.87415e-08 2.26652e-12
3.84572e-08 -2.62175e-08 1.20664e-12
-7.09299e-08 -8.47645e-09 8.61405e-13
2.67601e-09 -4.23599e-08 1.06022e-11
-1.19355e-08 1.53087e-07 -2.659e-12
4.62512e-07 1.2249e-07 2.44703e-09
3.41546e-08 -8.1892e-08 6.96285e-12
-4.89595e-08 -4.20045e-08 1.18958e-11
-9.34116e-08 -4.32524e-08 1.21217e-11
3.08956e-08 1.70602e-11 6.26009e-06
-4.44605e-08 -3.03535e-09 1.41144e-12
-5.57258e-08 1.62533e-08 3.94859e-12
-6.49494e-08 -3.6311e-08 6.80394e-12
1.28292e-08 -1.71306e-08 -2.06297e-13
2.98102e-08 -2.62977e-08 -1.42029e-12
-6.97187e-11 -6.56924e-07 -4.80775e-06
-9.47801e-08 -7.21747e-09 6.873e-12
-7.52696e-08 1.66302e-07 -1.32297e-10
1.48092e-07 -2.07436e-07 7.51314e-11
-4.84447e-08 -5.80781e-08 3.17216e-12
6.1955e-08 -1.08695e-08 -6.91946e-12
3.79666e-08 -2.94726e-08 8.97261e-14
-3.46016e-08 5.52576e-08 1.27913e-12
-2.86932e-08 8.16928e-08 4.68683e-12
6.61918e-13 3.69281e-07 1.69192e-06
6.35289e-08 -2.58287e-09 4.41682e-13
2.63303e-08 -1.46957e-12 1.00555e-06
-3.06036e-07 -5.09291e-08 1.74448e-11
-4.72009e-12 -1.17924e-07 3.83758e-06
-8.74587e-08 -1.05566e-11 2.36695e-06
-7.08725e-08 1.30063e-08 -2.62106e-12
-1.43894e-07 -7.18212e-09 -2.98066e-10
5.4815e-12 -1.89206e-07 -4.10232e-05
1.82467e-07 1.27124e-07 6.96633e-11
6.93003e-08 -4.56767e-08 -8.62916e-13
-9.93055e-11 8.06188e-07 2.54304e-06
-1.00148e-07 -4.74712e-08 5.33671e-12
-6.24578e-12 -1.40012e-07 -4.94493e-06
-1.89471e-08 3.57678e-09 3.29153e-13
1.73178e-12 -3.69277e-08 1.72844e-06
-4.60111e-08 3.1784e-08 4.55448e-12
-1.25678e-11 3.33e-07 4.25152e-06
-1.60985e-08 8.57532e-09 -1.03148e-13
5.5601e-08 5.478e-08 6.81753e-12
1.33707e-12 -5.25995e-08 1.65903e-06
7.15838e-08 1.72936e-08 -6.7266e-12
-8.43325e-08 1.31513e-07 2.92442e-11
2.64931e-07 1.47474e-07 6.54941e-10
2.0329e-07 -3.7564e-07 1.0702e-10
-1.33023e-07 -1.838e-07 3.7841e-11
9.76079e-11 7.09697e-07 -3.07181e-06
-3.39547e-08 1.02178e-07 -3.38778e-11
-3.74924e-08 -4.49248e-07 6.35745e-11
-3.03819e-11 5.98286e-07 2.01226e-06
2.73339e-07 3.19967e-11 2.14693e-06
-1.02582e-07 1.50127e-08 5.18367e-12
6.28471e-08 3.17636e-08 -1.97323e-12
-6.57309e-07 -4.43659e-12 -3.19419e-06
-1.26126e-07 -1.52123e-07 -8.69086e-12
-2.33713e-11 3.1663e-07 -4.24355e-06
-1.08123e-06 -1.15877e-10 7.62586e-07
-9.14178e-08 1.44397e-07 4.50209e-11
5.82621e-11 -5.50514e-07 -7.22195e-07
-5.7694e-08 2.62597e-07 6.0545e-11
4.4038e-07 9.11968e-08 1.18492e-09
-2.25339e-08 -2.15853e-12 3.58016e-05
3.25443e-08 -7.3744e-08 6.87871e-12
-1.44011e-07 -1.65709e-07 1.92007e-11
-1.06951e-11 1.39819e-08 3.52221e-06
-7.74994e-09 -3.62869e-08 2.56431e-12
2.55414e-08 -3.83593e-09 2.80629e-12
-1.54532e-08 1.20544e-08 3.08841e-12
1.24445e-06 -8.56079e-11 -2.67084e-06
-3.57955e-08 5.36153e-09 -1.4511e-13
5.80624e-13 -2.89344e-08 -1.23225e-06