<?xml version="1.0"?>
<VTKFile type="UnstructuredGrid" version="0.1" byte_order="LittleEndian" compressor="vtkZLibDataCompressor">
 <UnstructuredGrid GhostLevel="0">
  <Piece NumberOfPoints="1125" NumberOfCells="1125">
   <PointData>
    <DataArray type="Float64" Name="Elongation" NumberOfComponents="3"/>
3.83814e-06 -1.2552e-06 1.2555e-08
1.53896e-06 -1.10973e-06 4.40011e-09
2.13639e-06 -5.963e-07 4.54261e-09
7.1945e-07 -1.20968e-06 3.43812e-09
1.1915e-07 -1.67099e-06 3.76943e-09
1.42663e-06 -2.31704e-06 6.52342e-09
2.12376e-06 -2.30119e-06 8.06192e-09
1.05041e-06 -1.68486e-06 5.26862e-09
1.67485e-06 -2.1698e-06 6.66503e-09
-9.16515e-06 -4.96241e-06 -6.47272e-08
1.78433e-06 3.14685e-07 3.55964e-09
7.32282e-07 3.01605e-07 1.38153e-09
1.76875e-06 -9.80456e-07 2.95058e-09
8.94312e-07 -7.40071e-07 1.19838e-09
8.23979e-07 -2.48252e-07 8.56331e-10
9.36335e-07 5.40885e-07 9.3323e-10
1.08424e-06 -7.13097e-07 1.59816e-09
4.71244e-07 -5.74988e-07 5.82575e-10
-6.25143e-10 -6.2764e-07 4.80189e-06
-3.53902e-07 -7.10294e-07 4.41774e-10
-6.04018e-06 -3.654e-06 -3.04518e-08
1.24938e-06 9.89799e-07 2.36625e-09
1.90084e-06 1.73823e-06 3.61321e-09
2.69207e-06 -7.07302e-10 -8.61678e-06
8.67782e-07 1.66934e-06 2.6414e-09
1.67126e-06 -2.32281e-10 8.91784e-06
2.4344e-07 -5.89495e-07 -6.19717e-10
4.23512e-07 7.20721e-07 8.18651e-10
3.6408e-07 8.47616e-07 9.01627e-10
9.74055e-07 -5.26521e-07 1.09185e-09
4.55261e-07 -7.97315e-07 7.12873e-10
1.35998e-07 -1.05488e-06 8.76516e-10
-2.61492e-06 -6.91521e-07 -1.56557e-08
9.33964e-07 1.17973e-06 2.09112e-09
6.79e-11 -7.68829e-07 -1.5607e-06
4.27915e-08 1.0039e-06 1.01593e-09
3.85422e-07 1.42413e-06 1.27267e-09
-6.69949e-07 1.84177e-12 3.87147e-06
4.93339e-07 -3.89028e-08 1.75067e-10
5.53103e-07 1.12681e-07 2.04438e-10
3.97939e-07 2.77289e-07 4.1839e-10
3.55726e-11 6.46611e-07 3.82193e-06
2.32219e-07 3.58607e-07 3.51253e-10
-1.11859e-07 -1.39048e-07 1.72008e-11
6.41231e-07 -1.18516e-07 8.45511e-10
-2.45723e-08 -1.94019e-06 4.9209e-09
7.78779e-07 1.08462e-06 1.92881e-09
1.06522e-06 7.60565e-07 2.07496e-09
2.66856e-07 5.64584e-07 2.7206e-10
6.43265e-08 1.18092e-08 2.37397e-11
2.40043e-07 4.36794e-08 5.41388e-11
-1.30075e-07 6.59602e-10 -1.82738e-11
-4.25539e-11 5.28749e-07 1.47636e-06
5.9751e-07 -3.0243e-07 8.48908e-10
-1.99815e-07 -6.50916e-07 4.11009e-10
4.33873e-07 -1.33274e-06 2.26188e-09
-3.05496e-08 9.54133e-06 -2.57186e-05
-3.86974e-06 -3.78795e-06 -4.37187e-09
-9.62629e-07 1.71491e-06 3.64517e-09
5.95925e-07 8.00294e-07 1.54797e-09
-3.85673e-07 6.01319e-07 5.82217e-10
-1.70961e-07 -1.72226e-07 3.62617e-11
-4.41392e-07 -3.62703e-07 2.80506e-11
3.64589e-07 -6.15414e-08 2.48048e-11
1.16692e-06 -9.61477e-07 1.98168e-09
-9.13929e-07 -2.40132e-06 7.0218e-09
-3.89429e-07 -2.79181e-06 7.66557e-09
-3.51017e-06 -7.3282e-06 3.50151e-08
9.96358e-11 -1.13101e-06 -2.74417e-05
-6.42021e-07 2.08813e-06 2.64645e-09
-3.31299e-06 -5.85239e-09 -5.9876e-06
3.37607e-07 3.05065e-07 5.88602e-10
-2.48958e-07 6.10623e-08 1.01474e-10
-7.69322e-08 -2.0629e-07 9.74273e-12
-2.8308e-07 1.40272e-08 1.11855e-10
-2.57314e-07 -1.95096e-07 1.46615e-10
1.97439e-06 8.15353e-10 1.23368e-05
4.12685e-07 -7.93208e-07 5.12651e-10
-1.30683e-06 -4.97302e-07 1.84976e-09
-8.093e-07 1.65916e-07 3.18464e-10
-3.85779e-06 -4.25827e-06 -3.22708e-09
-3.90967e-07 1.85271e-06 3.83843e-09
3.29465e-08 2.51134e-06 4.36266e-09
3.49847e-06 -3.39334e-09 -3.28011e-06
-1.28358e-06 -1.91121e-07 6.99448e-10
-1.39749e-06 2.80179e-07 9.04857e-10
7.62225e-07 7.23621e-07 -5.46246e-10
-4.16627e-07 -2.41964e-07 2.61643e-10
-4.50051e-07 1.37936e-07 -1.62674e-12
1.62218e-07 -8.17302e-07 1.4787e-10
-1.20165e-06 -1.29171e-06 2.58096e-09
-2.66841e-06 -1.74521e-06 -6.11803e-09
-1.26992e-06 9.8745e-07 3.85159e-09
-3.7159e-07 6.5377e-07 1.05537e-09
-1.93214e-06 3.49573e-07 3.36592e-09
-3.09537e-07 3.45236e-07 4.19468e-10
2.82534e-11 -3.11649e-08 -1.34272e-07
-2.77349e-06 -6.7586e-07 3.12717e-09
-6.25486e-07 -9.23823e-07 1.38881e-09
-1.09069e-07 -1.13369e-06 1.12797e-09
-1.62909e-06 -1.50874e-06 4.33066e-09
-1.91386e-06 -1.85193e-06 5.56696e-09
-2.50744e-06 -6.43863e-06 2.69225e-08
-4.6916e-06 -7.86027e-06 -5.49431e-08
-1.26999e-06 -6.08931e-06 -4.46396e-08
-2.34257e-06 -2.57736e-06 -8.30194e-09
-2.64825e-06 -3.00969e-06 -1.29695e-08
-1.50009e-06 -2.2587e-06 -7.68972e-09
-5.57169e-06 -2.84851e-06 1.70691e-08
-9.30872e-08 -3.05577e-06 -1.33421e-08
-4.14118e-06 -3.57768e-06 2.43199e-09
-1.52204e-06 -3.45268e-06 -5.53517e-09
-3.64916e-06 -3.85101e-06 1.20072e-08
3.95821e-10 1.92383e-06 -8.70368e-06
-2.38669e-06 -5.42143e-07 -7.89128e-09
-2.2179e-06 -8.29865e-07 -7.14885e-09
-1.75156e-06 -7.84035e-07 -4.36038e-09
-1.16224e-06 -3.63309e-07 -1.64992e-09
-7.78406e-07 1.07872e-07 -1.47791e-09
-1.91291e-06 8.72877e-07 -4.90733e-09
-1.82083e-06 1.05625e-06 -5.42062e-09
-2.13133e-06 8.24831e-07 -7.72167e-09
-2.1046e-07 2.37536e-06 -7.96196e-09
3.80312e-07 3.55201e-06 -3.22965e-09
-2.52766e-06 -8.48106e-07 -9.26034e-09
-7.82114e-07 -1.01445e-06 -2.8519e-09
-2.56473e-06 2.88372e-09 -5.87757e-06
-7.41813e-07 -2.64457e-07 -1.23325e-09
3.71769e-06 -4.91127e-09 -4.6143e-06
-3.04087e-07 -2.57553e-07 -6.20436e-10
4.54548e-09 -2.34988e-07 -1.31677e-10
-8.58822e-07 -7.12579e-07 -1.54091e-09
-9.83615e-07 2.7769e-07 -1.23418e-09
-1.27322e-06 6.65077e-07 -2.94329e-09
-1.86347e-07 5.61967e-07 -9.91573e-10
-2.15942e-07 1.11988e-06 -5.78515e-09
-2.37324e-06 -1.16063e-06 -8.84314e-09
-1.30805e-06 -8.9668e-07 -2.89906e-09
-5.16572e-07 -6.66626e-07 -1.1735e-09
-5.9846e-07 -6.86851e-07 -1.14668e-09
9.04638e-08 5.17168e-07 -4.76306e-10
-9.28214e-08 5.48059e-07 -5.81982e-10
-1.81084e-07 1.4014e-06 -2.19735e-09
-9.77963e-07 7.43412e-07 -2.18681e-09
3.73935e-07 1.35059e-06 -1.61828e-09
-2.02795e-06 -1.06971e-06 -2.90556e-08
-1.8088e-06 -1.11531e-06 -5.42247e-09
-4.10289e-07 -1.08094e-06 -1.66709e-09
-4.2988e-07 -1.13379e-06 -2.12015e-09
-5.5042e-07 -4.18522e-07 -6.38727e-10
5.57213e-07 -1.41445e-07 -7.44085e-10
1.16025e-07 2.82283e-07 -1.45047e-10
-3.81111e-07 -9.9982e-08 -2.87146e-10
-1.02116e-06 3.843e-07 -1.93135e-09
-3.21558e-07 3.72399e-07 -4.27708e-10
-2.29684e-06 -1.18839e-06 -3.33141e-08
-1.5553e-06 -1.59212e-06 -6.60683e-09
-4.83115e-07 -9.95282e-07 -1.72766e-09
-2.12291e-07 -7.2414e-07 -8.03528e-10
-1.79661e-07 -5.86517e-07 -6.00627e-10
9.09231e-07 4.9412e-07 -1.46954e-09
1.92865e-07 7.24875e-07 -1.0363e-09
-5.15597e-07 1.15794e-06 -1.96238e-09
-2.12389e-06 -3.97636e-09 -1.63016e-06
-9.19266e-07 6.22341e-07 -1.97194e-09
-5.32704e-08 1.6479e-06 -3.56802e-09
-2.64094e-06 1.61141e-06 -3.96679e-08
1.83885e-07 1.50245e-11 3.66244e-05
-3.8038e-07 -7.57934e-07 -1.87932e-09
-5.82209e-07 -7.94499e-07 -1.27173e-09
-8.60933e-08 -1.31482e-07 -1.60585e-10
-8.77376e-07 -4.86647e-07 -1.22142e-09
1.40434e-06 -1.12656e-07 -1.84001e-09
1.81642e-07 9.67694e-07 -1.54877e-09
-8.20134e-08 1.1535e-06 -1.83194e-09
5.08835e-07 1.59323e-06 -3.14902e-09
1.20369e-06 1.97082e-06 -5.56827e-09
-2.9773e-06 6.83737e-06 -9.8593e-08
7.89055e-12 2.69413e-07 -2.4542e-05
3.45066e-07 -4.33337e-11 -3.48463e-05
-3.72905e-07 -1.37597e-06 -3.61109e-09
2.56296e-07 -1.95861e-06 -3.62616e-09
-3.09742e-07 -8.683e-07 -2.08912e-09
-6.89279e-07 -8.81848e-07 -1.62696e-09
1.03934e-06 -4.17765e-07 -1.57275e-09
2.7869e-07 -2.87061e-08 -8.46417e-11
3.63104e-06 4.39709e-09 3.86397e-06
5.44861e-07 -6.19655e-07 -5.27883e-10
1.05934e-06 3.88904e-07 -1.31217e-09
1.26366e-06 3.52486e-07 -1.88969e-09
-1.6124e-06 3.1286e-06 -2.91523e-08
6.6085e-11 3.64989e-07 2.81259e-05
-8.20466e-07 -1.90647e-06 -5.24715e-09
3.35858e-07 -1.46658e-06 -3.31451e-09
5.74911e-07 -8.23481e-07 -1.73695e-09
7.20612e-07 -1.61104e-06 -4.68153e-09
1.91989e-06 -1.21814e-06 -6.43556e-09
-2.75837e-07 -6.28207e-07 -7.10012e-10
8.77298e-07 5.34841e-07 -1.30789e-09
2.06606e-07 1.17317e-06 -1.53584e-09
1.19727e-06 1.80535e-06 -4.95671e-09
-2.30379e-06 3.30913e-06 -4.57209e-08
-1.1619e-07 -2.63704e-06 -1.12025e-08
-8.1872e-08 -2.69852e-06 -1.19326e-08
1.07215e-06 -2.37033e-06 -1.08123e-08
2.63367e-07 -2.67462e-06 -1.11089e-08
1.95931e-06 -3.31727e-08 -5.91853e-09
6.71976e-07 -8.68026e-07 -2.22541e-09
2.98285e-07 -7.88482e-07 -1.52363e-09
2.09583e-06 1.84566e-07 -5.36429e-09
2.26697e-06 -3.7433e-08 -5.12221e-09
-1.57764e-06 6.32896e-06 -5.92754e-08
2.86287e-06 -5.32202e-07 -1.95072e-08
3.04431e-07 -5.67225e-07 -1.09098e-08
1.33242e-06 -1.85528e-06 -2.82919e-08
1.87363e-06 -2.27403e-06 -3.49619e-08
3.78185e-06 -2.86722e-06 -6.69585e-08
5.43446e-06 -2.58497e-06 -7.37974e-08
1.80955e-06 -1.32991e-06 -2.2348e-08
5.03376e-06 -1.32852e-06 -4.60464e-08
4.81399e-07 8.8572e-07 5.2388e-09
3.21258e-06 3.26668e-06 -4.48374e-09
-2.14153e-09 -2.55513e-06 7.1866e-06
3.07452e-07 1.05046e-10 5.96153e-06
-2.47569e-07 1.89747e-06 7.83139e-09
8.17037e-07 2.44456e-06 9.86317e-09
-3.63869e-08 1.94626e-06 7.66372e-09
8.08128e-07 2.81392e-06 1.20037e-08
5.20505e-07 3.02425e-06 1.37354e-08
1.127e-06 1.35982e-06 5.67555e-09
1.79509e-07 1.453e-06 4.16574e-09
1.24553e-06 1.35754e-06 6.0418e-09
1.62672e-06 4.48498e-08 6.76491e-09
3.29898e-06 -2.77264e-06 1.1553e-07
2.97942e-07 1.02882e-06 2.92355e-09
-2.53336e-07 1.78065e-06 4.20758e-09
-1.0098e-06 7.84806e-07 2.14934e-09
2.49057e-07 5.33205e-08 2.14555e-10
6.54063e-07 1.8837e-07 7.52674e-10
-4.13761e-07 -3.92059e-07 2.09368e-10
6.75611e-07 -5.8498e-07 1.09688e-09
1.90903e-07 -8.45275e-07 1.08014e-09
6.72877e-07 8.91183e-07 1.15999e-09
2.70298e-06 9.95354e-07 6.68677e-08
5.85334e-08 1.17679e-06 2.42039e-09
6.65649e-07 -2.30115e-07 7.58853e-10
-7.30951e-08 -6.41875e-07 6.27523e-10
4.37744e-07 -9.01287e-07 1.64456e-09
1.61154e-07 1.13137e-07 5.92739e-11
-3.46175e-07 1.99739e-07 1.99951e-10
1.57836e-08 2.80654e-07 1.16383e-10
-1.05216e-08 1.13308e-07 3.86597e-11
-1.93209e-07 -7.92637e-07 7.72757e-10
2.89951e-06 -5.53078e-07 5.14153e-08
1.2018e-07 6.96498e-07 7.83474e-10
-1.18656e-06 6.0241e-07 3.01623e-09
-2.60056e-07 3.86343e-07 3.70996e-10
3.58278e-07 2.55049e-08 1.98586e-10
4.5326e-07 1.5496e-07 2.77276e-10
-2.14351e-07 3.78145e-07 2.69077e-10
6.01196e-08 3.79943e-07 7.10606e-11
4.52174e-07 -6.97305e-08 5.24083e-10
1.55679e-09 2.2264e-06 3.97547e-06
1.94898e-06 7.86802e-10 -7.08542e-08
3.31549e-08 -8.80056e-07 1.15717e-09
3.02244e-06 -6.96837e-07 5.16577e-08
-1.33367e-12 -4.68327e-07 6.26132e-06
-3.80451e-07 1.1036e-06 2.68786e-09
-1.15943e-06 7.2575e-08 2.49138e-09
-6.17454e-07 2.35764e-07 8.6957e-10
2.33366e-08 5.84288e-07 5.41725e-10
2.8022e-07 1.85232e-07 1.79717e-10
-1.59782e-07 -1.22765e-07 -2.85958e-11
-2.20688e-09 1.33504e-06 -6.8894e-06
-5.79074e-07 3.19665e-07 5.20168e-10
-1.46818e-07 -4.16607e-07 2.34011e-10
-4.89865e-07 7.47372e-09 5.6431e-12
3.14262e-06 1.05296e-06 5.17171e-08
4.97104e-12 -3.46878e-07 2.04788e-05
1.86011e-07 3.37935e-11 3.35959e-05
-1.99558e-07 8.65333e-08 5.79797e-11
-9.01401e-07 1.03344e-06 2.56796e-09
-5.60202e-07 -2.61718e-08 5.41411e-10
5.74727e-07 1.00712e-06 1.71965e-09
-1.94992e-07 6.21522e-07 1.0974e-09
-1.0647e-06 3.27544e-07 8.01783e-10
-5.04254e-07 4.27895e-07 1.43789e-09
3.74124e-07 1.27491e-06 3.50731e-09
-2.99865e-07 -1.13449e-07 -1.78393e-10
3.79582e-06 -2.86016e-06 7.41252e-08
-7.892e-07 1.30307e-10 -2.00656e-05
-6.72049e-07 9.08339e-07 2.30632e-09
-8.89041e-07 9.28072e-07 1.96956e-09
-8.50905e-07 8.85308e-08 5.1201e-10
-2.56187e-06 -3.19545e-09 -4.36949e-06
1.22304e-07 7.83638e-07 1.38276e-09
4.8357e-07 7.767e-07 1.28073e-09
-4.13254e-07 -3.04846e-08 2.39381e-10
-1.91547e-06 4.52885e-08 4.52224e-09
3.96696e-10 2.61464e-07 5.25281e-06
8.44916e-07 2.15339e-07 1.73028e-09
1.36408e-07 -2.26272e-07 4.42759e-10
2.4628e-06 -1.66323e-07 3.7744e-08
-3.13131e-07 5.93913e-07 6.46214e-10
-6.29862e-07 7.46764e-07 1.59733e-09
4.07682e-07 1.10317e-07 2.05566e-10
-4.97538e-07 -4.98092e-10 -3.98252e-06
-6.32095e-07 3.84994e-07 9.14139e-10
4.42003e-06 -2.26214e-09 -6.35808e-06
-4.24024e-07 9.92876e-07 1.59171e-09
2.95316e-07 8.39273e-07 1.56922e-09
-1.20516e-06 5.27285e-08 2.09992e-09
9.07589e-07 -1.20325e-06 3.44636e-09
-2.23363e-07 -1.26354e-06 2.19307e-09
2.6462e-06 -5.19104e-07 3.80786e-08
-8.91761e-07 1.29169e-06 5.25399e-09
-4.62293e-07 1.32732e-06 4.32509e-09
4.01382e-07 1.22991e-06 4.1745e-09
-5.64951e-07 1.54758e-06 5.09825e-09
-9.37807e-08 7.10801e-07 1.81285e-09
-8.47116e-07 3.9863e-07 1.72533e-09
-6.82406e-07 3.3701e-07 1.75763e-09
2.14665e-07 1.37345e-08 1.75013e-10
-1.59872e-07 1.64968e-07 1.55189e-10
2.33114e-06 -3.14736e-06 4.12315e-08
7.66248e-11 3.9638e-07 -3.69467e-05
-2.1574e-06 3.79827e-06 1.27187e-07
-9.50872e-07 3.27623e-06 8.54222e-08
1.27387e-06 2.70644e-06 4.76894e-08
-2.68266e-06 3.05704e-06 6.18944e-08
-6.42858e-07 3.12668e-06 5.22626e-08
-1.83064e-06 2.78672e-06 4.86785e-08
-3.04937e-06 2.62588e-06 5.84217e-08
-2.63133e-06 2.29921e-06 4.1249e-08
-1.39754e-07 6.88728e-07 6.76463e-09
-1.57607e-06 -1.56314e-06 -8.42153e-09
1.47002e-09 -1.70681e-06 -1.59276e-05
2.64305e-07 1.16659e-11 -3.40246e-05
2.38898e-07 -7.8385e-08 6.37523e-11
-2.28239e-07 -7.8389e-08 -3.0906e-11
3.84282e-07 4.6077e-07 -1.31359e-10
-4.39404e-07 -2.82256e-07 -2.65146e-10
-3.16685e-07 -6.48879e-07 -6.2583e-10
-2.61674e-07 4.41491e-08 -2.12232e-10
4.27672e-07 -3.34414e-07 1.15462e-10
1.05178e-07 1.14235e-07 -1.36732e-11
-5.57049e-07 -3.02395e-07 -1.47291e-09
-4.82502e-06 1.54484e-06 -1.94034e-07
3.28651e-07 -6.33054e-07 -1.39446e-09
-4.77195e-08 -1.11656e-06 -1.76298e-09
1.70614e-07 1.29921e-07 3.28441e-11
-4.3661e-07 3.54885e-07 -6.05961e-10
-7.38374e-07 4.96564e-08 -1.08049e-09
4.71071e-07 2.98752e-07 -1.46563e-10
-1.67443e-07 6.07479e-08 -8.00246e-11
-3.82477e-07 -4.03425e-07 -4.52121e-10
-1.51501e-06 -4.77503e-07 -5.17435e-09
-4.17268e-06 3.57653e-07 -1.25665e-07
6.54696e-12 3.16544e-07 -3.70304e-05
1.16809e-06 -6.96996e-07 -4.04489e-09
3.2938e-07 -3.66897e-07 -4.87252e-10
1.68596e-07 -2.89239e-07 -2.51515e-10
-1.66799e-07 -4.31278e-07 -3.93594e-10
-3.75038e-07 -7.74557e-07 -1.46329e-09
-3.82563e-07 -6.4447e-07 -1.07325e-09
-1.96181e-08 -9.31924e-07 -1.25485e-09
3.27249e-07 -1.80762e-07 1.45924e-10
-1.83602e-09 -1.61908e-06 4.94116e-07
-8.19842e-07 -3.0144e-07 -2.6928e-09
-2.84303e-06 1.32569e-06 -5.99358e-08
9.43333e-07 -3.90475e-07 -2.20683e-09
-4.17899e-07 -1.14876e-07 -3.0345e-10
-2.4342e-08 7.39824e-07 -8.79776e-10
-1.97924e-07 -1.61012e-07 -1.46608e-10
-1.1659e-06 -2.23366e-07 -2.5238e-09
-2.77236e-07 -2.27184e-07 -3.71252e-10
-2.98149e-07 -3.61793e-09 -2.31288e-10
3.69643e-09 -9.16809e-08 -1.29308e-11
-9.51371e-07 5.29577e-07 -3.17997e-09
-2.85488e-06 1.42411e-06 -5.70413e-08
1.07684e-06 -3.48362e-07 -2.90106e-09
-2.54423e-07 3.60114e-07 -3.00368e-10
7.52728e-08 4.30621e-07 -3.69358e-10
8.84932e-08 5.88603e-07 -6.60399e-10
-8.34406e-07 -4.67499e-07 -1.86036e-09
-3.80198e-07 -7.56775e-07 -1.40206e-09
8.78005e-08 -6.84914e-07 -9.1681e-10
-9.51757e-08 1.07765e-07 -5.58477e-11
-5.48752e-07 -1.35189e-07 -1.20604e-09
-3.25151e-06 1.7311e-07 -5.90686e-08
7.55043e-07 -6.41289e-07 -2.67232e-09
1.59718e-07 -8.37561e-07 -1.18378e-09
2.8657e-07 -9.23074e-07 -1.92785e-09
4.78374e-07 -3.6128e-07 -1.19113e-09
-1.25642e-06 2.15779e-07 -1.69605e-09
4.03808e-07 -5.58637e-07 -9.83133e-10
1.35756e-07 -7.26937e-07 -7.64032e-10
-5.55593e-07 -2.32454e-07 -8.6541e-10
-2.29208e-11 -3.14615e-07 7.43551e-06
-1.32028e-06 2.19606e-07 -5.21712e-09
-3.23567e-06 -3.30352e-07 -5.80675e-08
1.00865e-06 2.3716e-07 -2.02712e-09
4.3692e-08 -1.75861e-07 -7.76341e-11
6.0018e-07 -1.08076e-07 -2.87905e-10
6.7048e-07 5.52303e-07 -1.07594e-09
-7.21568e-07 -3.40963e-07 -1.30142e-09
-1.56667e-10 1.40699e-06 -1.04054e-06
-4.5514e-08 5.44452e-07 -6.11688e-10
-2.34706e-07 5.26964e-07 -6.19116e-10
-4.56151e-07 -1.44304e-07 -6.04725e-10
-1.14921e-06 -2.96045e-07 -3.27069e-09
-2.23329e-06 -1.08544e-06 -4.13166e-08
-0.000105557 -4.87909e-06 -7.21236e-06
1.44658e-10 1.25315e-06 -3.55588e-05
8.9646e-07 -5.10885e-07 -2.22621e-09
-1.75301e-07 -1.14493e-07 -8.04519e-11
-1.94048e-07 -1.65363e-07 -3.74742e-11
3.30141e-07 5.08328e-07 -9.7777e-10
-8.85655e-07 1.24855e-07 -1.90577e-09
7.42909e-07 1.02448e-06 -2.03199e-09
1.513e-07 2.29156e-07 -9.46286e-11
-2.45807e-07 3.62418e-07 -5.31351e-10
-2.70002e-07 5.30478e-07 -1.00179e-09
-2.09174e-06 -1.57104e-06 -3.3876e-08
3.93561e-12 -4.68644e-07 -2.82271e-05
1.30761e-06 1.96843e-07 -3.3652e-09
7.17838e-07 5.94566e-07 -1.37298e-09
-5.12655e-08 6.87373e-07 -1.8872e-10
5.11651e-07 6.60597e-07 -1.10746e-09
-1.15219e-06 -3.80779e-07 -3.25854e-09
2.28783e-07 9.41789e-07 -8.24838e-10
9.84775e-08 1.02012e-06 -1.20829e-09
-7.56699e-07 5.47633e-07 -1.43253e-09
-1.17075e-06 1.08695e-06 -4.38788e-09
-2.21867e-06 1.46145e-07 -3.11589e-08
4.19449e-12 -5.28473e-08 3.6116e-05
5.04939e-07 5.61306e-11 3.34306e-06
1.02642e-06 -4.87975e-06 -1.9302e-07
1.59296e-06 -4.37638e-06 -1.40627e-07
-9.60453e-08 -2.84073e-06 -5.4468e-08
6.97929e-07 -3.0566e-06 -5.91602e-08
1.15555e-05 -4.9168e-08 4.73296e-05
-1.21175e-06 -2.67592e-06 -4.72993e-08
-8.47142e-07 -2.14671e-06 -3.72325e-08
1.26064e-06 -2.94507e-06 -5.53511e-08
-6.8123e-07 -2.03286e-06 -3.14095e-08
1.56598e-06 -2.51501e-06 -4.13586e-08
-3.84568e-07 -3.2858e-07 -5.56793e-09
-1.44409e-09 4.27306e-06 8.87825e-06
-3.45572e-07 -4.91745e-07 2.68876e-10
-1.46476e-07 -8.7609e-07 9.10917e-10
-7.33281e-08 -6.57506e-07 5.2517e-10
-7.1136e-08 -8.99416e-07 9.06613e-10
1.41199e-07 -7.80447e-07 1.06177e-09
-7.55546e-07 -6.56753e-07 1.37564e-09
-2.1441e-07 -2.67463e-07 3.09115e-10
-2.9841e-07 -7.572e-07 1.36916e-09
-7.43209e-07 8.51107e-08 3.41302e-10
4.07625e-06 7.28622e-07 1.76036e-07
-2.39518e-07 -5.71508e-07 5.57304e-10
5.53841e-07 -1.26277e-07 4.2453e-10
3.18455e-07 2.8362e-07 2.7798e-10
-2.54934e-07 3.85079e-07 5.60438e-10
-5.73654e-07 2.26389e-07 9.68331e-10
-2.20232e-08 2.81535e-07 4.60454e-10
-5.57608e-07 5.76727e-07 1.04678e-09
1.97912e-08 5.15851e-07 5.5463e-10
1.15788e-07 -2.6603e-07 3.85708e-10
3.94076e-06 -8.53784e-07 1.33789e-07
1.32219e-07 -4.07999e-07 1.4704e-10
-7.86809e-07 4.58543e-07 1.81053e-09
6.45743e-08 2.80862e-07 2.18906e-10
-1.06853e-07 4.67691e-07 4.29632e-10
-2.93009e-07 -5.20027e-07 8.12636e-10
2.42521e-07 -5.08183e-07 8.18041e-10
-2.3236e-07 -3.51748e-07 4.94452e-10
5.52435e-07 -1.61376e-07 6.50059e-10
-1.17268e-07 6.90322e-07 2.93669e-10
1.70001e-06 1.08176e-06 3.47115e-08
-4.57071e-09 -4.06343e-07 2.33221e-10
5.38764e-07 -8.21527e-08 6.63136e-10
6.39007e-08 -3.87193e-07 1.93519e-10
-3.14607e-07 -2.19509e-07 3.00885e-10
-3.84149e-07 -4.70689e-08 3.20976e-10
4.50915e-08 -5.0373e-07 6.70164e-10
-6.65421e-07 -6.44147e-07 1.10759e-09
2.83262e-07 -3.78097e-07 5.97112e-10
1.20236e-07 1.81791e-07 2.61858e-10
1.90416e-06 8.5646e-07 3.61572e-08
2.32457e-07 -3.46986e-07 2.43199e-10
4.77287e-07 -7.27036e-08 6.04793e-10
4.26549e-07 8.87697e-08 3.26827e-10
-1.46719e-08 -2.07538e-07 9.68017e-11
-3.47286e-07 -2.09302e-07 3.68978e-10
-3.10101e-08 -9.65956e-08 3.80162e-11
-5.30316e-08 -1.99862e-07 7.33258e-11
3.4526e-07 2.64593e-07 6.68437e-10
4.15441e-07 -1.18255e-07 9.23098e-10
2.35879e-06 -6.94407e-08 4.39444e-08
-3.90558e-12 1.05456e-07 -1.04144e-05
1.07716e-06 1.89866e-10 -3.35022e-05
2.8998e-07 -3.09348e-08 8.11951e-11
4.67953e-07 -3.09327e-07 5.11969e-10
3.8781e-07 -2.06743e-07 3.72249e-10
-1.03003e-07 -5.92028e-07 2.6479e-10
4.14599e-07 -4.87308e-07 4.25246e-10
6.12457e-07 -2.91085e-07 7.00273e-10
2.07268e-07 1.66375e-07 3.92107e-10
2.17009e-07 -2.83116e-07 3.69755e-10
3.84575e-07 3.72379e-07 8.09759e-10
2.38767e-06 1.14818e-06 4.70121e-08
-8.39675e-12 -2.2718e-07 -2.31103e-05
7.62629e-07 -1.34132e-10 3.86453e-05
7.07167e-07 -4.59274e-07 1.23656e-09
3.0801e-07 1.17254e-07 2.32511e-10
4.20469e-07 1.09417e-07 3.42177e-10
-1.26038e-07 -8.21274e-07 8.57457e-10
-5.63777e-07 -1.94876e-07 6.35828e-10
2.46871e-07 2.77625e-07 3.403e-10
8.60734e-07 1.54244e-08 1.09945e-09
-5.07374e-07 -9.016e-08 5.96842e-10
3.55083e-07 5.14777e-08 6.17677e-10
1.80117e-06 1.12684e-09 3.13822e-08
1.39921e-11 1.87788e-07 3.4338e-05
1.16627e-06 -2.07502e-10 -2.79219e-05
2.56285e-07 4.7494e-08 2.05487e-10
8.27314e-08 -2.1405e-07 5.46919e-12
6.18432e-07 -1.81517e-07 2.52058e-10
5.45649e-07 1.36347e-08 2.10452e-10
1.74634e-07 -3.90608e-07 1.53102e-10
-5.82684e-07 -8.91359e-07 1.90141e-09
4.88522e-07 -5.08603e-07 1.15436e-09
-7.1263e-07 5.37582e-07 1.30733e-09
2.84082e-07 4.1826e-07 6.71704e-10
2.1638e-06 9.5462e-07 3.79903e-08
-4.35117e-12 -8.09478e-08 3.72328e-05
6.92646e-07 -5.88226e-08 9.47594e-10
2.18306e-07 -1.55291e-07 -6.95918e-11
-4.52338e-07 -3.6172e-07 3.13981e-10
3.31448e-07 -6.56524e-08 2.04143e-10
2.60717e-07 -3.7108e-07 -3.96235e-10
8.04009e-09 6.06342e-12 1.97629e-07
4.48121e-07 4.67192e-07 1.59565e-09
2.86685e-07 7.59259e-07 1.59478e-09
-6.69875e-08 3.34899e-07 5.32387e-10
5.27854e-07 4.29278e-07 1.38451e-09
1.73661e-06 1.6581e-06 3.2027e-08
1.07742e-06 3.95249e-06 1.71056e-07
5.81664e-07 3.57231e-06 1.17671e-07
-7.59125e-07 2.16461e-06 4.56069e-08
1.25984e-06 2.17343e-06 4.67805e-08
4.40513e-07 2.21796e-06 4.1121e-08
8.3239e-07 1.90053e-06 3.58154e-08
1.28635e-06 2.28399e-06 4.31238e-08
1.12665e-06 1.81292e-06 3.22357e-08
-1.25465e-07 2.43182e-06 3.94673e-08
1.86969e-06 1.76125e-06 4.94046e-08
-6.45694e-07 -3.6811e-07 9.50469e-10
-6.07817e-07 -4.74008e-07 6.58769e-10
-3.35039e-07 -1.47615e-07 2.7688e-10
-4.58588e-07 -2.76734e-07 1.81981e-10
-1.70835e-07 -1.30151e-07 8.16478e-11
-1.08027e-06 7.77074e-08 1.88021e-09
-3.02619e-07 1.78034e-07 3.2839e-10
-3.5217e-07 1.27147e-07 2.81558e-10
-3.24679e-07 3.37051e-07 1.49608e-10
2.68601e-06 1.58757e-06 1.25803e-07
-4.08596e-07 -6.42628e-07 1.26321e-09
1.10745e-07 -7.74643e-07 1.19633e-09
7.02084e-08 -2.25741e-07 2.58705e-10
-3.45915e-07 -5.02949e-08 2.83137e-10
-2.44817e-07 -1.93416e-07 2.00561e-10
-8.51708e-08 -3.20876e-07 2.67873e-10
-2.87694e-07 -2.1571e-08 1.34982e-10
-5.14114e-07 -8.8647e-08 3.52125e-10
-2.78521e-08 3.89208e-08 -1.57482e-11
2.54457e-06 6.04677e-07 8.75388e-08
6.82108e-08 -7.9334e-07 1.05502e-09
-4.52652e-07 -5.52456e-07 8.48571e-10
-2.68529e-08 -4.61635e-07 6.44403e-10
-1.54234e-07 -4.73314e-07 9.07173e-10
-2.61099e-07 -2.85973e-07 3.61291e-10
-1.57833e-07 -5.91107e-08 9.5833e-11
-4.87849e-08 8.14298e-08 8.91601e-12
-2.3051e-07 -1.71112e-07 2.74013e-10
-1.9658e-07 4.48888e-07 1.10013e-10
5.11141e-07 1.38948e-06 1.41468e-08
2.20403e-11 -1.7104e-07 -4.95842e-06
5.80042e-08 -5.96701e-07 7.16618e-10
-2.37498e-07 -2.22389e-07 2.63357e-10
-1.73495e-07 -8.1446e-09 8.57442e-11
-2.91716e-07 -9.59842e-08 2.19793e-10
-3.9577e-07 -1.055e-07 3.50219e-10
-2.07917e-07 1.65843e-07 7.6573e-11
-2.62053e-07 -2.29627e-07 4.44572e-11
-2.27793e-07 9.65138e-09 8.00109e-11
-5.02944e-07 3.23453e-07 2.23702e-10
6.47016e-07 1.12119e-06 1.4037e-08
3.7903e-07 -1.75964e-11 -3.50082e-05
3.70439e-07 -7.06898e-07 1.47417e-09
-2.48576e-07 -9.13996e-08 2.20525e-10
-2.04966e-08 1.38868e-07 9.2092e-11
2.71491e-09 3.53322e-07 3.58362e-10
-1.46303e-07 -8.19264e-08 9.59905e-11
-3.44436e-08 -4.47041e-08 1.30723e-11
1.43331e-07 -9.59508e-08 8.50427e-11
-4.1019e-07 1.43053e-07 3.97239e-10
-1.75296e-07 3.81326e-07 2.62543e-10
8.38823e-07 1.22919e-06 1.81684e-08
4.2978e-11 -4.35158e-07 1.39049e-05
5.62861e-07 1.43887e-10 3.08109e-05
2.87018e-07 -4.22845e-07 6.10008e-10
6.02145e-08 -6.19753e-07 5.17295e-10
2.04684e-07 -7.34914e-07 1.11598e-09
-1.59576e-07 -6.30616e-07 4.62169e-10
1.86592e-07 -1.84277e-08 -5.67768e-11
3.5065e-07 8.99798e-08 7.53704e-11
-6.22211e-08 8.19077e-08 -2.45571e-11
-3.65967e-07 3.09289e-07 5.50935e-10
-3.41632e-07 8.69836e-07 1.31105e-09
8.23736e-07 1.73915e-06 2.21744e-08
5.79262e-07 -3.27059e-07 8.12823e-10
4.2502e-07 -3.96485e-07 6.49434e-10
-7.29408e-08 -2.98967e-07 3.27155e-10
3.13091e-09 -2.79358e-07 1.51007e-10
-2.7243e-07 -1.70542e-07 1.79835e-10
1.40392e-08 1.28313e-07 3.60304e-11
5.33498e-07 2.76094e-07 7.07448e-10
1.32552e-07 -7.50079e-09 4.9972e-11
-4.00114e-08 1.00453e-07 8.46578e-11
8.82815e-07 -2.7966e-07 1.50044e-08
1.84351e-07 -7.58445e-07 1.02093e-09
9.53288e-08 -4.662e-07 3.79023e-10
3.98249e-07 -1.81386e-07 2.0958e-10
5.78718e-07 -3.10373e-07 3.39993e-10
-1.49368e-07 -3.36093e-07 -8.24651e-13
1.86584e-07 1.79187e-07 1.46069e-10
3.16197e-07 3.32763e-07 5.73786e-10
-1.27914e-07 6.16389e-07 7.90468e-10
6.15941e-08 1.01113e-06 2.36091e-09
1.30703e-06 8.84764e-07 2.36613e-08
-2.31584e-11 2.07109e-07 -9.87701e-06
-5.4683e-07 -9.90008e-11 -3.71653e-05
8.53092e-07 -3.02406e-07 1.75033e-09
3.99531e-07 -1.80563e-07 1.44382e-10
-2.03576e-08 -2.45587e-07 -2.07802e-10
4.42932e-07 -2.9014e-07 1.92958e-10
2.51372e-07 -1.14024e-07 -5.88659e-11
2.27047e-07 3.84206e-07 1.09618e-09
1.315e-07 9.37678e-07 2.40171e-09
1.92522e-07 5.84221e-07 1.44418e-09
2.79833e-07 6.37955e-07 1.78486e-09
1.26579e-06 1.85961e-06 2.94441e-08
-6.35453e-07 -5.45368e-11 3.5566e-05
1.52629e-06 2.6037e-06 1.21388e-07
1.66961e-06 2.07551e-06 7.54894e-08
6.81833e-07 1.04856e-06 2.16515e-08
1.00638e-06 7.11128e-07 1.59625e-08
9.5427e-07 8.39213e-07 1.55418e-08
1.0538e-06 9.35515e-07 1.96025e-08
1.77994e-06 1.13887e-06 2.65261e-08
1.09958e-06 1.22485e-06 2.35598e-08
1.02206e-06 1.73817e-06 3.19923e-08
2.53542e-06 2.43875e-06 9.67444e-08
-8.98612e-10 -5.93754e-07 -2.51942e-05
6.55837e-07 4.79842e-07 -1.81841e-09
6.78564e-07 4.34862e-07 -1.49769e-09
2.96323e-07 2.8034e-07 -5.98745e-10
4.57491e-07 3.44171e-07 -5.0092e-10
3.45057e-07 1.94551e-07 -3.97149e-10
6.41899e-07 -1.59848e-07 -7.69447e-10
4.47436e-07 -6.21523e-08 -7.65425e-10
4.97616e-07 -2.9804e-07 -8.89613e-10
3.84785e-07 -4.72913e-07 -6.71229e-10
-1.45732e-06 -1.16133e-06 -6.98555e-08
4.55116e-07 3.4399e-07 -8.47049e-10
2.45753e-07 5.84083e-07 -8.27683e-10
1.01106e-07 1.69092e-07 -2.92757e-10
1.85101e-07 6.22101e-08 -1.52391e-10
7.04263e-08 1.83344e-07 -1.28778e-10
2.10392e-07 1.42936e-07 -2.38463e-10
1.92683e-07 -3.6305e-08 -1.073e-11
3.68816e-07 -1.77673e-07 -2.66651e-10
2.00096e-07 -7.50239e-08 2.98993e-11
-1.10135e-06 -1.14897e-06 -4.17665e-08
3.80164e-07 6.75901e-07 -1.3109e-09
2.15905e-07 4.89828e-07 -5.61271e-10
2.18878e-07 1.9919e-07 -2.70996e-10
1.89191e-07 2.25343e-08 -9.3522e-11
6.97696e-08 -9.15568e-08 -4.47339e-11
1.18128e-07 -9.19527e-08 -6.43513e-11
4.37774e-09 -2.03497e-07 -1.04321e-10
1.62073e-07 -1.59937e-07 -1.33519e-10
-7.03906e-08 -2.28877e-07 -1.88473e-10
2.06299e-07 -9.16352e-07 9.29926e-10
3.07872e-07 4.35554e-07 -5.89176e-10
-3.94044e-08 4.01441e-07 -3.70951e-10
3.54635e-08 3.3291e-07 -2.67324e-10
1.17563e-07 1.72664e-08 -2.4538e-11
4.00445e-08 6.58812e-08 5.24065e-12
4.1215e-08 -1.4451e-07 -6.78996e-11
-4.61915e-08 -6.13607e-08 -1.99179e-11
3.34253e-07 -1.37787e-07 -2.37225e-10
1.70441e-07 -3.1889e-07 -2.55756e-11
2.90954e-07 -7.67266e-07 2.66594e-09
4.90414e-07 6.67637e-11 3.59751e-05
6.52671e-08 5.99312e-07 -8.53976e-10
6.99455e-08 1.51652e-07 -9.75149e-11
7.56187e-08 3.07018e-07 -1.68601e-10
1.98958e-08 6.32578e-08 -1.83732e-11
-1.26227e-07 -7.26761e-08 -7.46303e-11
-4.80534e-08 -8.29415e-08 -4.62757e-11
9.94851e-09 -1.24698e-07 -5.43751e-11
1.65083e-07 -8.7529e-08 -9.38863e-11
8.65728e-08 -3.46884e-07 -2.15402e-10
3.16847e-07 -1.15831e-06 1.2648e-10
2.24666e-11 4.26358e-07 3.34151e-05
-9.41533e-07 -2.20281e-10 -1.16744e-05
-3.85986e-08 4.08567e-07 -4.28854e-10
-3.85157e-08 4.47786e-07 -4.09361e-10
-1.48385e-07 2.22893e-07 -6.27609e-11
2.26373e-07 2.68384e-07 -1.75575e-10
-3.71321e-08 -8.94585e-09 -1.23763e-11
-3.82289e-08 -7.4955e-08 -6.77241e-11
2.83127e-08 -1.36664e-07 -7.91631e-11
1.37465e-07 -2.49153e-07 -2.7833e-10
-2.17793e-08 -6.53316e-07 -1.07054e-09
5.42446e-07 -1.80271e-06 -3.66752e-09
-2.0309e-07 4.14096e-11 -2.26876e-05
-6.90618e-08 4.42634e-07 -4.07558e-10
-1.82725e-08 5.1417e-07 -5.12278e-10
-7.73497e-10 1.88174e-07 -2.05133e-10
-9.22742e-09 -3.08343e-08 2.93073e-12
-2.54543e-07 2.58628e-07 -1.87381e-10
-1.15358e-07 9.81168e-10 -1.96642e-11
-1.53968e-07 -1.19838e-07 -1.64029e-10
-2.65814e-07 -1.03058e-07 -3.4884e-10
-5.62338e-08 -1.5898e-08 -4.78999e-11
-2.42364e-08 -2.13235e-07 -9.05583e-10
5.43122e-07 -1.64034e-10 3.82422e-05
1.64838e-10 7.77073e-07 -1.17728e-09
-1.49709e-07 5.21242e-07 -6.69049e-10
-3.33908e-08 1.45097e-07 -1.73501e-10
-3.64449e-07 6.17473e-07 -9.79214e-10
-3.19898e-07 4.63366e-07 -5.78908e-10
-3.55321e-07 -2.93995e-07 -4.56627e-10
-2.52321e-07 -4.12964e-07 -7.90062e-10
-1.60582e-07 -5.05141e-07 -9.14893e-10
-1.02619e-07 -8.18821e-07 -1.98103e-09
-9.59726e-08 -1.04058e-06 -4.13081e-09
-1.66934e-10 -5.75623e-07 2.72984e-05
-4.64308e-07 -1.01136e-10 2.32571e-05
-3.52749e-07 6.1893e-07 -7.88896e-10
-2.04687e-07 5.8482e-07 -4.37022e-10
-3.26021e-07 5.55928e-07 -5.27659e-10
-1.74339e-07 5.42393e-07 -1.16165e-10
-4.24984e-07 1.84385e-07 -3.99621e-10
-2.11315e-07 2.15563e-07 -3.54975e-11
-1.22028e-07 -8.1289e-08 -1.80926e-10
-5.2504e-07 -8.16477e-08 -8.46955e-10
-4.23431e-07 -1.69561e-07 -8.84151e-10
-5.30221e-07 -1.66638e-06 -1.85655e-08
-1.20151e-06 -1.01973e-10 -1.60515e-05
-8.85359e-07 -1.43089e-06 -6.69068e-08
-1.15437e-06 -9.16818e-07 -3.45644e-08
-9.27834e-07 -1.69036e-07 -5.79014e-09
-6.45659e-07 2.85996e-07 2.84633e-09
-1.28317e-06 3.21406e-07 4.09082e-10
-1.26336e-06 1.58883e-07 -3.9609e-09
-1.51013e-06 -1.12268e-07 -8.62107e-09
-1.218e-06 -2.66269e-07 -9.6794e-09
-1.11552e-06 -9.84136e-07 -2.10896e-08
-2.57634e-06 -2.50712e-06 -1.33206e-07
-4.94086e-09 -2.61449e-06 -1.24894e-05
8.99752e-07 -3.69333e-11 3.18449e-05
3.98911e-07 -4.28571e-11 -3.20062e-05
-4.73274e-07 -4.32561e-07 1.63747e-09
-3.9518e-07 -3.23473e-07 1.02422e-09
-1.99832e-07 -2.28393e-07 4.1051e-10
-2.59107e-07 -3.30312e-07 5.22299e-10
-3.59164e-07 -3.2811e-07 6.45968e-10
-3.24593e-07 6.46927e-08 2.93807e-10
-3.42761e-07 -5.17054e-10 4.59498e-10
-4.15986e-07 1.22549e-07 5.40882e-10
-5.01177e-07 4.34186e-07 1.2784e-09
3.00338e-07 1.00368e-06 1.87668e-08
-3.80787e-07 -3.41561e-07 1.01876e-09
-3.0733e-07 -4.20242e-07 7.30394e-10
-2.57438e-07 -4.96546e-08 2.41448e-10
-1.72919e-07 5.08134e-08 9.20901e-11
-2.89802e-07 5.15714e-09 1.85494e-10
-9.43595e-08 2.95651e-08 5.82495e-11
-2.55335e-07 1.53493e-07 2.42009e-10
-2.10166e-07 1.34971e-07 1.79462e-10
-4.38384e-07 -5.07401e-08 3.55175e-10
1.95879e-07 8.2267e-07 1.02952e-08
-3.01919e-06 -2.18142e-09 6.91793e-06
-2.4053e-07 -5.39474e-07 1.08961e-09
-1.53424e-07 -3.10564e-07 3.06567e-10