<?xml version="1.0"?>
<VTKFile type="UnstructuredGrid" version="0.1" byte_order="LittleEndian" compressor="vtkZLibDataCompressor">
 <UnstructuredGrid GhostLevel="0">
  <Piece NumberOfPoints="1362" NumberOfCells="1362">
   <PointData>
    <DataArray type="Float64" Name="Elongation" NumberOfComponents="3"/>
7.00683e-05 0.000181567 -0.000667485
-0.000212964 -3.03295e-05 -0.000417208
7.37094e-05 6.54497e-05 0.000668579
-0.000176258 1.4643e-05 -0.000233577
2.12602e-05 6.11836e-06 3.43694e-05
4.94787e-05 -7.94904e-05 -0.000207029
7.78559e-05 -2.15384e-05 -5.0338e-05
-1.44666e-05 -1.03261e-05 -5.45877e-07
-1.09034e-05 2.4998e-05 -1.23219e-05
1.92057e-07 -4.11255e-06 -2.9856e-06
-7.44928e-05 -5.15487e-06 -2.13448e-06
-1.70236e-08 -6.59207e-08 -3.03223e-08
0.000266757 -9.91998e-05 -0.000212851
-7.5535e-05 7.7008e-05 0.000132786
-0.000303024 -0.000229056 0.0001153
2.60181e-05 2.34082e-05 1.65233e-05
1.14587e-07 -3.70167e-08 -4.65266e-06
0.000120901 9.74632e-05 -0.00023295
-3.26083e-06 -5.05852e-07 2.60004e-06
-5.57051e-05 0.000121603 -0.000182523
-1.27443e-05 7.40642e-06 -3.11013e-05
-2.14885e-05 -2.03475e-05 1.88911e-05
-2.92481e-05 3.80047e-05 3.47672e-05
-1.39521e-05 1.24265e-05 2.13551e-05
1.42432e-05 -2.06581e-07 1.20817e-05
-6.75737e-06 -3.48411e-05 2.23011e-05
-2.18475e-05 1.51312e-05 6.76635e-06
-7.18473e-05 -2.61411e-05 3.37945e-05
-3.68759e-05 -7.04818e-06 -2.27262e-05
2.2177e-07 5.11264e-07 -8.80665e-07
-1.84074e-05 -6.2469e-06 1.32851e-05
-2.39918e-05 1.15783e-05 -4.34929e-05
-7.49675e-07 4.06616e-06 4.63986e-06
-2.13809e-05 -3.58963e-05 5.83815e-05
-3.93114e-05 5.64005e-05 9.6555e-05
0.000175697 -3.12889e-05 -0.000172072
-3.65059e-05 2.86357e-05 7.5149e-05
3.04206e-05 -1.48608e-05 5.47389e-05
-1.28688e-05 9.54553e-05 7.7361e-05
1.64917e-05 1.15892e-05 6.85089e-06
0.000114544 1.71001e-05 2.81822e-05
3.9149e-05 -0.000230612 -0.000133072
0.000110745 5.06447e-05 -2.99421e-05
9.95301e-06 2.1682e-05 -3.1024e-06
-5.38476e-05 -1.77278e-05 3.40305e-05
-5.7031e-05 0.000531429 0.000255132
-6.80641e-05 -2.02458e-05 4.41514e-05
2.06541e-05 7.71395e-05 -3.39437e-05
-3.36367e-05 3.06935e-05 1.007e-05
4.8918e-06 -3.23489e-06 -9.29607e-06
3.67175e-05 -2.43067e-06 4.79381e-05
1.02433e-05 -2.94318e-05 -2.27124e-05
-5.46658e-05 -4.07662e-06 5.5669e-05
-8.57443e-05 0.000174927 -0.00023157
0.000193813 0.000219763 0.000356485
-1.10174e-05 -3.46512e-05 3.9525e-05
-1.4631e-06 3.35651e-06 3.90243e-06
-1.84533e-06 -8.06216e-07 -8.65006e-07
5.25837e-06 -1.21002e-05 -4.79374e-06
1.78224e-05 1.60351e-05 -4.01732e-06
-1.00078e-05 1.02718e-05 1.95314e-06
1.17555e-06 1.65065e-05 1.26746e-05
-6.10337e-06 3.12198e-06 -5.8724e-06
3.93847e-05 4.54189e-05 5.82734e-05
-8.25488e-06 -2.51347e-05 3.59277e-05
4.74228e-05 -1.70069e-05 -6.19731e-05
1.34116e-05 -1.1022e-05 1.58236e-05
-2.34655e-05 -0.000101726 7.18871e-05
-0.0001882 0.000127733 0.00017966
9.32108e-05 5.41842e-05 9.204e-05
-2.96743e-05 4.02134e-05 -2.50499e-05
-2.098e-05 -2.80231e-06 -4.13229e-06
1.03362e-05 7.96184e-06 -3.23828e-06
-6.14281e-06 -4.61032e-07 -1.85043e-06
3.4848e-06 1.37071e-05 -7.43176e-06
-3.66015e-05 -3.30481e-05 -2.61521e-05
1.6062e-05 3.11585e-05 -2.49932e-05
1.96953e-05 1.34338e-05 1.58723e-06
-2.03107e-05 1.92494e-05 -7.38697e-06
5.96862e-05 5.14172e-05 1.80901e-05
-5.59145e-06 2.4348e-05 -1.70079e-05
-4.20633e-06 6.93405e-06 7.99681e-06
2.16388e-05 5.59412e-06 1.75258e-05
-1.34319e-05 -4.02514e-05 9.3266e-05
-4.03523e-06 -5.6163e-06 -1.64034e-05
-1.4441e-05 -8.38837e-06 9.09395e-06
0.000180531 -0.000172318 -1.45863e-05
2.54377e-05 -5.30973e-06 -2.74441e-05
-0.000122864 -6.86415e-05 -5.17252e-05
-1.99438e-05 -2.30726e-05 1.03648e-05
-3.21587e-06 1.9182e-05 4.02839e-06
2.18582e-05 4.40163e-05 -2.26743e-05
1.05995e-06 3.91797e-05 2.85182e-05
1.50314e-05 5.19531e-05 9.597e-06
-1.1462e-05 -3.67937e-06 8.0343e-06
1.03616e-05 -4.84581e-06 7.61148e-06
-4.58512e-05 3.52387e-05 7.34379e-06
-6.1288e-06 2.14799e-05 -1.15598e-05
7.93356e-06 5.74634e-06 0.000152453
-6.00887e-06 1.46796e-05 -0.00011443
-3.05568e-05 3.43069e-05 -0.000904014
1.18107e-05 8.4077e-05 0.000164564
1.0061e-05 -6.51202e-06 -1.52526e-05
-9.47721e-06 3.45776e-06 -1.24112e-05
3.48022e-05 1.08186e-05 -5.15504e-05
-3.59209e-05 -6.71153e-05 2.23788e-05
2.20211e-05 2.3296e-05 4.7449e-05
1.62846e-05 1.04063e-05 -1.10397e-05
2.04238e-05 -3.86501e-05 9.13036e-06
5.62021e-05 1.394e-05 1.9189e-05
4.18719e-05 4.2813e-05 6.30495e-05
1.05668e-05 2.32271e-05 7.29542e-06
5.14623e-08 7.09701e-07 -5.92841e-07
3.20959e-07 -1.12496e-05 -6.74437e-06
2.04135e-05 -2.02753e-05 2.67678e-05
-8.06892e-06 2.04473e-05 1.24608e-05
-6.18838e-06 -4.721e-05 9.40241e-06
4.12385e-05 -8.88047e-06 -5.86322e-05
4.577e-05 6.92925e-06 8.56039e-07
-1.15569e-05 2.98086e-05 1.38257e-05
-2.00731e-05 -7.40132e-05 4.78893e-05
-1.70884e-05 0.000290714 0.000211058
4.41493e-05 2.75352e-05 -1.38397e-05
-7.77106e-05 1.44621e-05 1.85507e-05
0.000498956 0.000146726 -0.000259732
2.95743e-05 1.07378e-05 2.31478e-05
-3.46815e-05 2.09e-05 0.000160163
4.22194e-05 -3.22332e-05 -0.000190501
3.9953e-06 -4.34994e-06 3.98956e-06
-4.39937e-05 4.98288e-05 0.00064931
0.000424003 -0.000137919 0.000111084
-0.000164035 -0.000233966 -0.00153507
-1.1031e-05 -0.000118941 0.000125693
0.000332405 -4.63269e-05 0.00045754
8.81091e-05 -1.00617e-05 -8.31907e-05
1.45055e-05 -2.27751e-05 1.42929e-05
-6.48905e-05 0.000217268 -0.000465189
-5.71344e-05 -0.00016859 -0.000417606
-5.84115e-06 -2.32604e-05 -7.08726e-06
-6.03331e-06 8.93201e-06 1.05203e-05
-0.000100846 3.82521e-05 -0.000106439
0.000166269 0.000160993 -0.00106286
5.77939e-05 -0.000110834 -0.000536048
2.01526e-05 0.000235723 -0.0006791
-0.000461376 -0.000414231 0.000665667
-0.000186362 -4.36463e-05 -0.000143986
-2.20956e-08 7.19056e-08 2.07583e-08
0.000114586 0.000105872 -1.00959e-05
-1.22768e-05 1.95754e-05 -5.05733e-06
-7.57777e-05 2.58769e-05 7.35455e-05
-2.59061e-05 3.25586e-05 -7.62753e-05
0.00010242 9.50153e-05 6.38888e-05
4.17896e-06 -7.40967e-06 1.17354e-05
8.50075e-06 -1.21482e-05 3.61889e-06
1.50082e-05 0.000154742 1.05092e-05
3.39579e-05 9.01087e-05 2.79139e-05
-1.2195e-05 -1.74848e-05 -2.90367e-06
-1.38416e-05 -2.11927e-05 -2.53667e-05
-1.2318e-05 1.34016e-05 -5.41367e-06
-6.99552e-05 -1.12533e-05 -7.5183e-06
0.000194596 -0.000352278 -0.000166736
1.81138e-05 4.00413e-06 -1.36203e-05
-2.10116e-05 5.49933e-07 -1.90177e-05
3.5716e-06 -2.42236e-06 1.18509e-06
-0.000140198 -6.11262e-05 -0.000204152
1.56905e-05 -2.00298e-05 1.30864e-05
-9.6775e-06 2.45812e-05 -5.44119e-06
8.34871e-06 -3.10919e-06 -1.73623e-05
0.000138886 9.70291e-05 -9.58595e-05
0.000157728 -8.12565e-05 3.87169e-05
-9.35558e-05 -6.84555e-06 4.44896e-05
-1.47018e-05 -0.000362084 0.000235436
3.32772e-05 3.22916e-05 -2.84881e-05
4.80093e-05 -2.32685e-05 -1.28975e-05
-3.74344e-06 -6.99407e-06 -4.60242e-06
-0.000160522 -0.000121494 -6.27672e-05
-3.44787e-05 2.05764e-05 2.37069e-05
-1.22329e-05 5.26958e-06 2.00235e-05
-7.81507e-06 2.58232e-07 -8.82779e-06
9.63164e-07 -1.23677e-05 -1.6155e-05
-4.50457e-05 -1.6573e-05 5.6121e-05
3.46271e-05 6.72061e-05 5.42228e-05
-7.48738e-05 -4.26373e-05 -5.4708e-05
-2.20289e-06 1.37493e-05 -1.42363e-05
2.44539e-06 -3.33843e-05 -2.85034e-05
-3.38001e-05 -3.6956e-05 -0.000290045
-2.06166e-05 -7.6887e-05 6.36379e-05
4.86773e-05 1.15518e-05 3.92158e-05
7.56483e-05 -8.37927e-05 -0.00024782
5.93702e-05 3.20883e-06 1.81763e-05
-0.000175065 0.000232271 0.000498424
-1.89025e-05 -4.41957e-06 3.96304e-06
-6.38746e-06 3.73894e-07 3.77372e-06
-5.19576e-05 -1.72285e-05 3.98499e-05
7.34033e-06 -9.6016e-06 8.59986e-06
-8.3838e-06 2.36212e-05 1.77195e-05
-4.73162e-06 -9.23261e-06 2.33084e-06
2.7801e-05 5.32745e-06 -1.39034e-06
-6.70767e-06 -3.16328e-06 1.07007e-05
-0.000161913 -8.66387e-05 6.22006e-05
-2.04716e-05 -4.0332e-05 1.70756e-05
3.45698e-05 -1.97408e-05 8.4465e-05
3.27067e-06 -1.60272e-05 9.25346e-06
6.60109e-06 -1.14493e-05 -9.54919e-06
1.66741e-05 -9.37243e-06 -1.19546e-05
4.53089e-06 -2.98763e-06 -3.73811e-06
1.85272e-05 -6.32069e-05 1.6195e-05
6.6058e-05 -9.5124e-05 -8.74036e-05
2.63079e-05 2.04189e-05 1.80391e-05
-0.000105398 6.69372e-05 0.000121868
-1.1849e-05 -3.71734e-05 -7.20461e-07
-2.37877e-06 3.17696e-06 2.77259e-06
1.23536e-07 -5.66799e-06 -5.08888e-05
-7.10736e-05 3.73186e-05 9.69849e-05
1.43125e-06 -2.52131e-06 9.73434e-07
-3.20795e-06 7.659e-06 8.06897e-06
-1.7846e-05 -3.36016e-05 9.60446e-06
3.10441e-05 1.17087e-05 -0.000145759
-6.57206e-07 1.2262e-06 6.68098e-07
-3.5017e-05 5.48759e-05 -3.68203e-05
-8.26352e-06 -3.28614e-05 2.6838e-05
-1.34877e-05 -2.9888e-05 1.80651e-05
-0.000102159 8.80104e-05 -4.38924e-05
3.45499e-05 -5.24403e-05 1.34827e-05
-0.000417897 0.000156631 -3.43136e-05
-3.36484e-05 0.000129257 8.7717e-05
0.000190416 -0.000167685 -0.000548841
0.00019835 0.000106946 -4.69904e-05
2.09028e-05 8.52169e-06 2.65449e-05
-1.89243e-05 3.34646e-05 4.73069e-06
3.9863e-05 4.88414e-05 2.97176e-05
-1.50965e-05 2.61472e-05 1.02987e-05
6.16114e-06 -8.35196e-06 -3.89059e-06
1.9377e-05 1.36141e-05 6.66109e-06
-1.46114e-05 1.52551e-05 4.51486e-05
3.51087e-05 5.70346e-05 1.88442e-05
0.000140325 -0.000165771 0.00103921
-2.88461e-05 5.15864e-05 1.87873e-05
-8.9571e-06 3.07426e-06 4.26664e-05
1.6236e-05 -3.12468e-05 1.208e-05
0.000541418 0.0002968 0.000417764
1.65258e-06 4.37005e-06 3.00264e-05
-2.08862e-05 -1.62743e-05 9.76086e-06
4.29241e-05 -2.89636e-05 3.04685e-05
0.000630494 0.000428174 -0.000300123
-5.10205e-05 5.09563e-05 0.000324467
4.1708e-06 -1.11205e-05 2.83061e-06
-4.27768e-05 1.19845e-05 1.91405e-05
-3.88316e-05 -1.16546e-05 4.11341e-05
2.31663e-05 -1.03449e-05 -2.87704e-05
0.000902808 0.000315084 -0.000476204
-3.32094e-05 4.99548e-07 -0.000269938
-8.06439e-06 -0.000425862 -0.00109319
-6.67154e-05 -9.48373e-05 0.000174662
1.69776e-05 -3.00005e-05 -5.23561e-05
-0.000192875 -0.000137824 0.000334719
3.24132e-05 -9.58573e-06 4.50411e-05
1.61247e-05 -3.82244e-05 -4.16069e-05
-0.00113832 -0.000997001 -0.00280252
-0.000134709 2.74566e-05 -0.00110557
-5.44929e-05 -7.02369e-05 -3.17202e-05
-2.66862e-05 -2.95266e-05 1.0836e-05
-2.33531e-05 -2.49406e-05 4.44805e-06
0.000760458 0.000360039 0.000303134
2.91711e-05 -2.21981e-05 4.2793e-05
5.11183e-06 3.16814e-06 2.11164e-06
-8.60688e-08 -3.06063e-08 4.36724e-08
-0.00104193 -0.000144194 -0.000707291
-0.000136526 -0.000553148 -0.000140039
-9.86645e-10 1.03323e-06 -1.04076e-06
-2.4109e-05 -0.000178822 8.66755e-05
-4.92312e-06 -6.1945e-05 -7.84465e-05
-2.37288e-06 -9.5356e-07 6.74144e-06
-4.33076e-05 -0.000216863 4.55561e-05
2.98611e-05 8.09933e-06 1.94434e-05
6.17693e-05 6.61093e-05 0.000209328
-2.35468e-06 3.39224e-05 -1.02901e-05
7.22015e-05 4.24164e-05 0.000155218
-0.00013708 -7.22943e-07 0.000263991
-8.14613e-06 -4.67374e-05 9.26535e-05
-0.000318321 -2.50805e-05 -0.000167623
-0.000210346 -5.02103e-06 -0.000105713
4.17772e-05 -4.02725e-05 -5.43328e-05
-0.000382665 -9.93493e-05 -0.000415186
-2.35428e-05 -9.86067e-05 0.000164612
-5.05908e-05 2.72389e-05 -2.66465e-05
-1.39375e-05 -4.6695e-06 -4.54946e-06
1.5274e-05 1.86127e-06 5.34572e-06
-4.66332e-05 -0.000204622 0.000250631
-1.04975e-07 1.45159e-07 2.16501e-07
0.000453195 0.000495213 -0.00092358
9.05156e-06 9.29608e-05 3.55354e-05
-9.36549e-05 0.000103532 0.000101557
-4.36626e-06 -1.0106e-05 -7.92049e-06
-8.82154e-06 1.95308e-06 -1.63755e-06
-4.83438e-05 0.000142257 -0.000110008
7.6486e-06 5.42658e-06 -7.60257e-06
2.83508e-05 -2.76883e-05 3.01173e-05
-0.000122542 -9.40983e-05 -0.000234953
-4.02669e-05 4.71533e-06 7.4297e-05
-2.79394e-05 -4.02947e-05 4.23407e-05
2.88474e-05 7.90923e-06 6.44915e-06
4.60133e-05 5.15363e-06 -3.93333e-05
3.54642e-05 -5.58667e-05 7.47134e-05
-8.68183e-06 -2.2657e-05 -9.63557e-07
5.15055e-06 -5.71008e-06 6.58037e-07
-3.21308e-06 -8.05181e-07 1.31684e-06
-1.83764e-05 6.20546e-06 5.77875e-07
5.14432e-06 4.12169e-05 -3.14273e-05
-0.000379259 -0.000564714 -0.000561019
-4.2719e-05 4.20389e-05 -3.92591e-05
1.37022e-05 6.6031e-06 9.26671e-06
-7.91044e-05 -2.36231e-05 7.11555e-05
5.24522e-06 6.59695e-06 -6.98099e-05
4.50217e-06 1.40612e-05 1.41247e-06
-3.57653e-05 2.89807e-05 2.09309e-05
-1.7701e-05 -3.8963e-06 3.12874e-05
3.23752e-05 -2.35116e-05 -2.6982e-05
-2.51732e-06 2.39948e-06 -5.19233e-06
2.36344e-05 -1.78612e-05 1.20017e-05
5.94066e-05 5.27866e-05 8.58384e-06
1.58088e-05 3.4951e-06 -2.0474e-05
-4.10468e-05 -6.15553e-06 7.31753e-07
-8.01216e-07 2.46306e-06 -2.00889e-06
9.84278e-05 9.89865e-05 2.03078e-05
-8.30507e-06 1.23255e-05 4.06716e-08
-0.000406894 7.01327e-05 -1.30566e-05
-4.44506e-05 9.0075e-06 4.75382e-05
-7.86258e-05 3.28157e-05 -6.62706e-05
-1.89554e-05 2.51025e-05 3.10106e-05
2.31373e-05 -4.83023e-05 3.01063e-05
-8.44904e-06 -1.16914e-05 4.14961e-06
-9.05264e-06 -2.29575e-05 -1.47802e-05
-2.65198e-06 8.49009e-06 -7.67973e-06
-1.65383e-06 -4.02838e-05 1.64095e-05
4.46866e-06 1.25165e-05 7.24307e-06
-3.67549e-06 3.05045e-06 -3.49638e-06
4.72791e-05 1.39196e-05 -0.00018774
-4.8749e-05 -1.49647e-06 2.05278e-05
0.000160843 0.000207427 -0.000333964
4.31136e-05 3.43983e-05 -3.69718e-05
1.23893e-05 2.03791e-05 4.14301e-05
0.000101849 8.17414e-05 9.75905e-05
9.39076e-06 3.82241e-06 5.90322e-06
2.61325e-05 3.62354e-05 4.94619e-05
8.61776e-06 -9.539e-06 -3.43132e-05
6.79842e-05 5.0467e-05 5.84378e-06
7.24966e-07 -3.05063e-05 -6.93931e-06
0.000141388 -4.5141e-05 -8.11209e-05
2.02375e-06 -9.17829e-06 6.87586e-06
-7.34779e-06 6.78204e-05 -0.000101695
2.05312e-05 9.4881e-05 -0.000121455
-3.83992e-05 -2.88291e-05 -2.13757e-05
-0.000229961 -0.000386089 0.00138958
-3.33302e-05 -3.33605e-05 3.39586e-05
-1.91423e-05 3.07092e-05 -2.77583e-05
5.19455e-05 0.000130092 0.00015011
-0.000824827 0.000310145 0.00228013
2.4591e-05 -9.49017e-06 1.57421e-05
-0.000111864 0.000189163 -8.48521e-05
-1.72393e-05 2.53896e-06 2.69325e-06
-7.02317e-05 -0.000117907 -0.000251517
0.000183607 -0.000310605 -0.00135346
-0.000123937 -0.000116823 0.000330347
-0.000116489 -0.00010412 -0.000299809
-0.00135744 -0.000143136 -0.00170017
-0.000543727 0.000324002 0.00238552
-1.60641e-05 6.58359e-07 2.81116e-05
0.000188885 -0.000195778 -0.000442328
3.49652e-06 -8.27099e-06 -4.51246e-06
-0.000617855 0.00024074 -0.000455433
9.25452e-05 -3.98453e-05 9.27168e-05
-0.000315211 2.03305e-06 -0.000980138
0.00131446 1.68912e-05 -0.0030916
-6.77361e-05 -0.000214456 0.000524127
2.21153e-06 -5.50702e-07 8.37861e-07
1.00928e-05 6.68947e-06 4.97649e-06
1.18079e-07 2.09125e-05 1.37772e-05
-0.00019873 -0.000270845 -0.000101151
-9.38476e-06 1.12639e-06 9.48175e-07
1.23163e-05 0.000129762 2.34679e-05
-1.18345e-05 1.40542e-05 -3.84523e-05
1.44204e-05 1.23282e-05 -5.09028e-05
6.27147e-06 1.36045e-06 8.20707e-07
-3.59966e-05 9.59806e-06 1.97927e-05
-9.69679e-07 -1.62811e-05 -2.0985e-05
1.23727e-05 2.31412e-05 -9.20923e-06
-0.000139654 8.71849e-05 -0.000250026
1.10062e-05 1.61847e-06 1.25906e-05
-1.76801e-05 1.13795e-05 -9.27951e-06
-3.73909e-05 -5.61422e-05 7.03358e-05
-4.91166e-05 -4.12185e-06 -3.94179e-05
3.90699e-05 0.000104135 0.00015151
-3.0113e-05 4.51842e-07 -8.44646e-05
1.94725e-05 -8.46489e-05 -5.74046e-05
-1.91683e-05 -1.74572e-05 -8.08759e-06
-7.18739e-07 8.71327e-07 1.13853e-06
3.2276e-05 -9.75737e-05 -6.7003e-06
-1.87923e-06 -1.3468e-05 1.29273e-06
1.66922e-07 1.26579e-05 5.69729e-05
-7.46758e-06 -4.40935e-05 -2.49574e-05
-2.57637e-05 -0.000100109 2.48526e-05
-5.28802e-05 3.86893e-05 -1.20608e-05
-5.21982e-05 4.05706e-05 -3.10804e-05
-0.00036941 -0.000575335 0.000772597
1.58623e-06 -1.38084e-06 -3.9311e-06
-4.28268e-06 -2.32502e-09 -5.21375e-06
1.12242e-06 -1.32444e-05 -9.7979e-07
3.92011e-05 2.12055e-05 2.64084e-05
0.000167009 0.000260388 6.02244e-07
-7.36336e-07 -1.82866e-05 4.18077e-05
7.70313e-05 -0.000246823 -0.000542068
-3.89275e-06 1.73705e-05 1.86423e-05
1.20587e-05 -2.09391e-05 2.22286e-05
-6.7375e-06 1.43039e-05 -0.000334045
1.20666e-05 -6.66152e-07 -7.31688e-06
-6.61849e-06 -1.21305e-05 4.91962e-05
-1.76163e-05 -2.18893e-06 -1.05027e-05
-4.80692e-06 3.61378e-05 -2.88013e-05
7.78735e-06 1.06116e-06 -4.14336e-06
2.31456e-06 -2.3314e-05 3.74368e-06
-8.21236e-05 6.43568e-05 1.14546e-05
-1.64587e-05 0.000120663 0.000137749
9.81668e-05 0.000273843 -0.000198634
3.32561e-05 -4.61323e-06 -1.3738e-05
1.72264e-05 1.30101e-05 -2.04654e-05
-4.75867e-05 4.51621e-05 3.00482e-05
-1.02109e-05 5.70904e-07 -1.94819e-05
7.63513e-05 7.54497e-05 0.000347151
0.00032615 -7.49341e-05 0.000232243
-5.82066e-07 2.84544e-06 1.02334e-05
-5.46058e-05 -0.000529039 0.000353219
1.28279e-05 6.02768e-05 1.20727e-05
-0.000185935 -3.31042e-05 -0.000220847
-2.58961e-06 -3.08335e-05 3.5874e-05
1.85656e-05 2.42422e-05 -4.97674e-06
-2.49787e-05 5.68548e-05 0.000120101
8.11703e-06 -4.10334e-06 4.4522e-06
5.44619e-05 -1.65821e-05 -2.35795e-05
-2.82538e-05 -3.16771e-05 -5.08967e-06
-1.32733e-06 9.15634e-06 -3.44627e-06
-8.79775e-06 5.73248e-06 2.87386e-06
1.90024e-05 5.61334e-05 5.61536e-05
-1.82781e-05 2.57058e-05 -7.99771e-06
-1.50017e-05 1.18582e-05 5.20515e-05
-3.74765e-05 1.71328e-05 -4.49883e-05
-1.762e-05 6.19006e-05 2.89963e-05
4.39979e-05 -4.75099e-05 -1.77e-05
-9.87682e-06 9.31451e-06 -1.53248e-06
2.36881e-06 6.63486e-07 -1.87098e-06
-9.07121e-05 -4.25546e-06 -7.79409e-05
6.21318e-05 7.51181e-05 -0.000146356
7.84967e-06 1.04512e-05 4.00862e-05
-1.85069e-05 -4.96907e-06 1.75954e-05
-4.60274e-06 4.6745e-06 -7.91371e-06
0.000685127 6.36957e-05 -0.000649595
3.94723e-06 1.20689e-05 -2.15709e-07
-1.5938e-05 -4.53962e-05 2.00279e-05
-1.11443e-05 -6.24444e-06 9.20879e-07
-0.00064547 6.01057e-05 -0.00276277
-4.76443e-05 0.000204803 -3.37122e-05
-3.59467e-05 1.0003e-05 -2.10489e-05
2.47617e-05 7.70118e-06 -2.0449e-05
1.33906e-05 -6.9638e-05 6.819e-05
-1.1064e-05 -8.71835e-06 -7.42458e-06
8.09106e-06 -6.26919e-06 2.48648e-05
1.61191e-05 -2.86623e-05 0.000134231
-0.000336252 -9.05713e-05 0.000375395
-2.17159e-05 -0.000181387 -0.000109221
6.62046e-05 1.59095e-05 6.89518e-05
-3.45529e-05 1.91136e-05 -5.38626e-06
-0.000605211 0.000378571 0.00130899
5.01e-07 -1.38205e-05 2.17001e-05
-4.86874e-05 -5.85376e-05 -0.00031645
-7.22663e-05 8.53314e-06 4.24224e-05
-2.45113e-05 -2.03615e-05 4.23327e-05
-5.70649e-06 -1.21495e-05 8.30908e-06
-7.12795e-05 -3.42639e-06 0.000106313
-2.06391e-05 -8.7083e-07 -2.22386e-06
-0.000616496 0.000448745 -0.000381721
-5.99075e-05 0.000465292 0.000402834
-5.46505e-05 -9.45642e-05 0.000140143
4.66514e-06 -2.71984e-07 2.87413e-07
0.000248459 -0.00120574 -0.000115605
0.000161256 0.000103119 8.95949e-05
2.90764e-07 -6.33206e-06 -3.55598e-06
0.00107408 -0.000669719 -0.00193836
0.000473358 -0.000713307 -0.000267765
7.83518e-06 3.40471e-06 -4.16065e-06
0.000349545 0.000136597 -2.37857e-05
2.38704e-05 -1.19201e-05 1.38432e-05
-2.29411e-05 -8.71893e-06 -1.19011e-06
-5.06727e-05 -3.26066e-06 2.93763e-05
5.24632e-06 -3.88005e-06 7.16428e-06
6.37676e-06 2.59158e-06 -3.61192e-06
0.000214567 -2.64334e-05 0.000253933
0.00052515 8.41286e-05 0.000693213
-1.81029e-05 -7.19401e-06 -5.01801e-06
-1.50288e-05 -4.4584e-06 -7.84557e-06
-1.50113e-05 3.73092e-06 3.53144e-06
9.73785e-05 0.000181758 1.30312e-05
4.83722e-06 -3.21107e-06 -2.48368e-06
0.000118086 -0.00048633 0.000213605
-0.000260494 -0.000253154 -0.000782006
2.48638e-05 -4.99828e-05 -2.01187e-05
-6.82523e-05 -4.59877e-05 -0.00110622
-5.2653e-05 4.49093e-06 3.07347e-05
7.49756e-06 -2.59585e-06 1.55883e-05
-5.53974e-06 -1.5266e-05 1.90867e-05
1.41578e-05 -1.29482e-05 2.69116e-05
-1.50996e-05 1.33423e-05 -7.82592e-05
5.66098e-05 0.000148481 1.86525e-05
3.9026e-05 -1.01137e-05 8.5207e-06
1.52156e-05 -5.28288e-05 -5.10874e-05
2.6238e-06 2.67106e-05 4.89287e-07
6.7078e-05 -6.12612e-05 0.000200818
1.52173e-05 -7.72699e-05 -6.86024e-05
-1.64491e-06 -3.89434e-06 2.51132e-06
5.45466e-06 3.97177e-06 5.26689e-07
-0.000121048 -0.000324785 0.000138993
-1.67708e-05 -0.000220014 -0.000227395
5.61189e-05 3.50489e-05 8.39377e-05
-0.00016528 0.000248855 -0.000322298
-8.92446e-05 -0.000108766 -5.44537e-05
-0.000506621 0.00026027 0.00210989
-0.000216432 -0.000123906 -0.000801371
-0.000497282 -0.000395012 -0.000220095
-0.000351054 0.000264194 0.00172431
3.59138e-05 -1.00631e-06 3.57604e-06
2.45088e-05 2.42274e-05 1.49636e-05
-1.2021e-05 8.46725e-06 2.37763e-05
-3.07977e-05 2.11207e-05 2.0324e-05
6.88217e-06 -1.16511e-05 -2.46588e-05
-2.37816e-05 1.28545e-05 -6.58121e-06
-3.15273e-07 -1.73109e-05 5.22594e-05
-5.1129e-05 -3.05466e-05 -1.83801e-05
3.85915e-06 1.3581e-06 -1.67727e-06
-3.71879e-05 -4.56707e-05 5.37486e-06
3.29283e-05 2.92293e-05 -3.44549e-05
0.000231576 0.000461968 -0.000456517
6.21928e-05 4.84487e-05 1.54073e-05
0.000345214 -0.000745918 -0.00119217
8.96535e-05 -0.000165042 0.000487353
-0.00017435 -0.000506516 -0.000898169
0.000153711 0.000313253 0.000630882
4.18439e-05 2.27889e-05 1.62723e-05
-6.09737e-05 2.66159e-05 7.23045e-05
-1.74e-05 0.000162971 -0.000190462
-2.19247e-05 -1.96307e-05 -2.0121e-05
-5.24386e-05 -2.88245e-05 0.000128861
-7.15815e-07 -3.87101e-06 3.45145e-05
2.32607e-05 -5.97332e-05 -2.10875e-05
-1.73968e-05 -8.92472e-06 -2.6808e-05
3.29336e-06 -1.14261e-05 4.59062e-06
3.6032e-06 4.89196e-06 -2.96338e-06
-5.27799e-06 -5.18222e-06 -1.07442e-05
1.99678e-07 2.39389e-07 -7.53506e-08
0.000131135 -0.000216901 -0.000159354
2.50247e-06 -6.19251e-06 -2.58541e-06
-8.84001e-06 1.57881e-05 -1.27874e-05
-1.21229e-05 -8.95605e-06 -6.08799e-06
-3.16644e-05 5.97581e-05 6.03796e-05
-1.29873e-05 2.81826e-05 -2.78533e-05
3.44933e-05 7.42536e-05 7.50494e-06
-8.8784e-05 0.000114592 0.000249825
1.95392e-06 -1.06867e-05 7.79524e-05
-1.61955e-07 6.19008e-05 -3.44818e-05
-8.3905e-06 -2.01854e-06 4.87733e-06
9.10863e-06 -1.43925e-06 -9.33722e-06
0.000127811 -0.000111321 -6.60932e-05
7.82279e-06 3.98111e-05 -1.34925e-05
5.05719e-05 0.000152901 4.34109e-05
-0.00010787 -0.000116611 4.39226e-05
1.72461e-05 2.8091e-06 -7.92859e-07
2.19921e-05 -1.73575e-06 -3.19044e-05
3.74771e-05 -7.24602e-05 -3.09262e-05
4.30569e-05 2.69418e-05 0.000112303
1.57603e-05 -8.51517e-06 -1.91945e-05
6.64458e-06 6.91409e-06 9.38375e-06
-3.04377e-06 1.11638e-05 -6.18256e-06
0.000103648 8.09642e-05 -6.9209e-05
-0.000186825 -4.1422e-05 -0.00010419
8.1908e-06 4.69968e-06 6.92393e-06
8.58725e-07 -5.46855e-06 -3.73548e-06
-5.62227e-06 3.39106e-05 -3.41823e-06
7.44851e-07 2.46449e-06 -1.56184e-05
-4.43705e-05 -0.000288766 -0.000169889
5.01418e-05 3.07761e-06 1.82156e-05
-2.1069e-05 2.33288e-05 -2.71739e-06
-2.69185e-06 -1.06594e-07 -1.77515e-05
1.1044e-05 9.26299e-06 1.31343e-05
-1.789e-06 5.41498e-06 -1.39355e-06
-0.000232171 -6.8755e-05 0.000149217
4.00627e-05 8.57888e-05 8.9271e-05
1.8994e-05 -2.87591e-05 -0.000112925
1.03919e-05 -3.26422e-05 2.14556e-05
-1.24695e-06 -6.61235e-05 -6.09037e-05
-1.07946e-05 2.96592e-06 -0.000180474
3.31992e-05 -2.40088e-05 -5.17429e-05
1.31958e-05 2.46126e-05 1.99604e-05
1.68804e-05 4.37911e-05 -0.000174248
-1.03872e-06 8.21022e-06 2.94594e-05
0.000322852 5.12771e-05 -0.000449726
-0.000272186 -7.95125e-05 0.000149739
-0.000138875 -0.000100465 3.07179e-05
4.21107e-05 4.48889e-05 -4.88675e-05
-0.000154776 -0.00180338 -0.00108505
7.05717e-06 -3.01786e-06 8.685e-08
-0.00011148 -2.36622e-05 5.43486e-05
-0.000270951 0.00024382 0.00208636
-1.61258e-06 7.15225e-06 5.3953e-06
-2.32286e-06 -1.20369e-05 -4.71787e-06
-1.72975e-05 1.7401e-05 -1.55842e-05
-2.82607e-05 9.70231e-06 -1.3629e-05
-3.51668e-05 -8.51938e-06 3.06729e-06
-0.000243945 -0.00127932 -0.000950378
-0.000350696 -0.00038715 0.00176277
0.000165154 -1.46745e-05 0.000369237
-4.28384e-05 -4.7901e-05 4.92679e-05
2.19576e-05 -2.55846e-05 3.57206e-06
1.89716e-05 1.61391e-05 8.62647e-06
-1.38678e-05 -5.90688e-05 -6.03714e-05
1.36625e-06 8.16213e-06 2.09531e-05
-0.000528287 3.09947e-05 0.000172345
0.000758296 -0.000611951 0.00065997
8.15471e-06 -1.01855e-06 2.16702e-06
-4.39655e-06 4.8571e-07 3.64637e-05
0.000236705 -9.74498e-05 -0.000242675
2.07458e-05 8.40971e-06 1.76703e-05
-1.32483e-05 -1.25279e-05 2.70524e-06
1.25351e-05 -1.15557e-05 -1.54088e-06
2.89606e-05 8.48565e-06 -2.7994e-05
0.000288704 4.52261e-05 0.000199608
-4.87057e-06 6.93672e-06 7.64282e-06
-6.12809e-05 0.000115201 5.51373e-05
-0.000232184 4.9501e-05 -1.8805e-05
3.39344e-06 8.7942e-07 3.76357e-06
2.07179e-05 0.00011152 -3.55211e-05
-0.000803765 0.000664842 -0.000525016
-0.00151159 0.000164603 -0.000287359
1.18254e-05 9.88454e-06 -1.07652e-05
6.33925e-05 0.000351892 -0.000445207
3.42974e-06 -5.10686e-06 -3.93793e-06
-1.12272e-05 -7.718e-06 9.83305e-06
-2.31428e-07 -3.33777e-06 1.08944e-06
-4.91143e-06 -2.20726e-06 6.42108e-06
1.80974e-05 2.10077e-05 2.37412e-05
-0.000218723 -0.000252867 4.5896e-05
-2.69842e-05 -3.14291e-05 1.30104e-05
4.00245e-06 -4.24512e-05 -3.42559e-05
0.000113869 4.56303e-05 -1.13767e-05
-0.000121642 5.98509e-05 4.81934e-05
-7.85983e-07 -1.39786e-06 8.72645e-08
-2.41152e-06 -8.92312e-06 4.84536e-06
-0.000449011 0.000487829 -0.000245809
-3.76166e-05 -1.98833e-05 -5.44929e-05
-2.39356e-05 2.36903e-05 5.08245e-05
-2.71031e-05 4.37139e-05 2.13291e-05
-1.49262e-05 4.77385e-05 0.000208197
8.63051e-07 1.44531e-06 1.18233e-06
-4.6848e-06 2.11061e-05 5.19637e-06
-8.30641e-06 -7.1939e-06 8.22897e-06
-3.6209e-07 7.76378e-07 4.23381e-07
-1.59913e-05 3.99599e-05 7.57977e-05
9.33315e-06 2.24094e-05 1.57976e-05
-3.2054e-05 -2.05764e-05 -2.58379e-05
-3.81726e-05 5.36233e-05 3.49673e-06
2.01011e-05 -8.27416e-06 -6.46072e-06
-6.13605e-06 1.64557e-05 1.04562e-06
-4.52242e-05 0.0001446 -0.000143661
-1.60926e-05 1.49288e-05 1.28905e-05
4.69425e-07 3.15162e-08 -6.6035e-07
-2.41844e-05 -7.18123e-06 -1.90398e-05
1.31914e-06 -0.000168672 5.41424e-05
4.09939e-05 1.06856e-05 -1.58838e-05
1.1136e-05 2.06905e-05 -4.42885e-05
-4.92781e-05 3.8269e-06 0.000101601
9.13378e-06 6.81515e-06 -2.5276e-06
-1.29343e-05 2.59757e-05 1.6329e-05
0.000289954 0.000211797 0.000112103
-6.75127e-08 -2.10653e-06 -1.39189e-06
3.49424e-05 -9.04168e-06 1.10859e-05
-3.16625e-06 -6.32169e-06 -1.13451e-07
-3.29388e-06 -8.03105e-06 2.80714e-06
3.56873e-05 4.52363e-05 2.11822e-05
-6.85044e-06 -2.78487e-06 1.02547e-05
2.39683e-05 1.02564e-05 1.5787e-05
2.13804e-05 -5.90888e-05 -5.35104e-05
4.72392e-05 4.49367e-06 -4.39618e-05
-0.000111204 1.85444e-05 8.9364e-05
-2.84763e-05 -4.16461e-06 4.30224e-05
-1.8851e-05 3.65093e-05 1.88997e-05
5.68995e-06 -1.2123e-05 -2.86168e-06
4.6079e-05 4.84717e-07 -1.74123e-05
0.000116958 -7.54548e-05 -0.000166014
-3.96092e-05 -5.95296e-06 -9.6907e-06
1.28873e-05 -4.71938e-05 -4.13074e-05
1.13048e-05 3.47143e-06 -1.38572e-05
-9.04743e-05 -1.47147e-05 3.61268e-05
2.39147e-05 8.23266e-06 -1.49035e-05
1.2355e-05 -2.95951e-05 -2.01145e-05
0.000110119 7.5225e-06 1.39961e-05
-0.000468409 0.000934856 -0.00266016
-0.000134788 -0.000202619 0.000249594
4.54316e-05 0.000341174 0.000551948
-1.099e-06 -4.45164e-06 7.57714e-06
-1.34422e-05 -6.05279e-06 -7.6754e-05
-0.000136236 2.31909e-05 2.79913e-05
-0.000124926 -5.83246e-05 0.000148182
-5.71139e-06 2.1143e-05 -1.6506e-05
0.00016132 -0.00018499 -0.00046105
7.60504e-06 1.73736e-05 7.28015e-06
6.50721e-06 1.20639e-05 1.9936e-05
-3.3233e-05 0.000123903 -8.79674e-05
6.85259e-05 -5.53017e-05 8.18898e-05
-6.53788e-06 1.05796e-05 -4.17911e-05
2.09537e-05 -4.48663e-05 -1.10462e-05
-1.64814e-05 0.000109193 0.000128782
-6.94217e-05 -5.24807e-05 0.000447116
-0.00108035 -0.000176988 0.00278622
-7.21115e-06 2.11713e-05 3.1969e-05
2.01624e-05 1.31086e-05 -1.64371e-06
-2.44274e-08 2.78867e-05 9.78196e-06
-2.64712e-05 8.99251e-06 -4.12793e-05
-0.000838114 0.000200278 0.00119637
1.42897e-05 -3.60534e-06 6.64127e-06
-2.05689e-06 5.4917e-06 2.15836e-05
-9.86383e-05 0.000187237 -0.000814796
2.6514e-05 4.88901e-06 -0.000134117
5.1489e-06 4.80121e-06 3.57697e-06
8.02763e-05 7.01303e-05 1.39623e-05
-1.80465e-06 2.98864e-06 1.67326e-06
3.78765e-06 2.02434e-05 -7.23163e-07
-0.000262692 3.14536e-05 0.000590056
3.15972e-06 -2.5702e-05 3.68967e-06
7.3031e-06 -2.65935e-06 -7.238e-06
-1.10886e-05 -1.98366e-05 -2.39507e-05
-1.71983e-07 7.49046e-06 8.17423e-06
-3.18414e-06 2.13987e-06 1.55191e-06
5.63593e-05 -2.92682e-05 -1.49955e-05
-0.00106838 0.00014365 -0.000672811
-4.30444e-06 -2.2904e-07 -4.89208e-06
-1.34458e-05 2.91162e-06 2.34858e-05
-3.22751e-06 -1.09193e-05 2.12573e-05
-8.49368e-06 1.02504e-05 2.20038e-06
7.13049e-05 2.93025e-05 -1.03761e-05
1.57883e-05 -1.17331e-05 8.4061e-06
0.000120682 -0.000423014 1.38549e-05
2.45034e-06 -8.4442e-08 -2.78982e-06
-1.12406e-05 9.398e-06 -1.19504e-05
-8.00082e-05 6.58417e-05 8.60224e-05
9.36976e-05 0.000170914 0.000408404
-0.000140786 -0.000493676 0.00267894
0.000111095 -7.01597e-05 -0.000319646
-3.51713e-05 6.86782e-06 3.78974e-05
-4.63245e-06 8.61882e-07 -1.44751e-05
8.29135e-07 1.57877e-05 -3.99695e-05
-4.06432e-05 -0.000221026 0.000131667
-1.70248e-06 -2.39694e-05 4.16929e-05
2.5343e-05 -9.04492e-06 4.76975e-05
-1.27785e-05 -1.0802e-07 7.14799e-06
-1.05967e-06 9.11774e-08 9.62014e-07
1.19095e-05 4.88509e-05 -5.29718e-05
-0.000304932 -0.000165962 -0.000434926
1.73771e-06 -9.13028e-06 7.42627e-06
0.000175673 -7.85461e-05 0.000212955
0.000167148 6.09879e-05 -0.00030982
-0.000224283 -5.44299e-05 -0.00039892
1.91158e-06 -3.92685e-06 1.82658e-06
9.19418e-06 0.00023923 -0.000130911
-4.63018e-05 -9.61483e-05 -0.000123156
-1.1578e-06 -1.03826e-06 2.53149e-07
2.34654e-05 -7.36095e-05 -1.90738e-05
-1.07971e-05 3.08923e-05 1.08612e-05
-9.00897e-05 -4.81602e-05 -0.00013058
1.13957e-05 2.79007e-05 9.98131e-06
9.88176e-06 -8.27139e-06 -8.98004e-06
0.00120228 -0.000428763 -0.00119537
4.60284e-06 3.49564e-05 -1.21744e-05
1.35788e-05 -1.40109e-05 1.09849e-05
-0.000146207 9.64517e-05 -1.67547e-05
-3.49111e-05 1.64085e-05 -3.40485e-06
5.08671e-06 1.6891e-06 1.34512e-05
3.21887e-06 9.7868e-05 4.44171e-05
-1.2403e-05 -2.45359e-05 -1.39522e-05
8.9948e-05 0.000107494 -0.000132945
9.28371e-06 1.01336e-05 1.24462e-05
1.12408e-05 8.53351e-06 6.3515e-06
-9.84087e-07 3.32343e-06 2.85963e-06
0.000197003 0.00055161 -1.55182e-05
3.00155e-06 1.84249e-05 2.04801e-05
3.53544e-06 4.17937e-06 -3.18209e-06
-1.8831e-05 -3.59468e-05 1.66659e-05
7.36932e-05 -6.09948e-05 -5.1286e-05
-0.00014553 -0.00027598 2.07574e-05
-4.39285e-06 -0.000130619 -0.000200285
2.44341e-05 -1.34017e-05 4.65651e-06
-0.0006697 0.000184143 0.000364342
-2.93385e-06 -3.74518e-06 -5.59459e-06
-4.1282e-06 1.22588e-05 -2.9207e-06
8.24624e-05 0.000164287 2.04671e-05