<?xml version="1.0"?>
<VTKFile type="UnstructuredGrid" version="0.1" byte_order="LittleEndian" compressor="vtkZLibDataCompressor">
 <UnstructuredGrid GhostLevel="0">
  <Piece NumberOfPoints="1079" NumberOfCells="1079">
   <PointData>
    <DataArray type="Float64" Name="Elongation" NumberOfComponents="3"/>
-0.000387053 -0.00053872 -0.00184502
-0.000289827 6.44708e-05 0.000193747
-9.16636e-05 -0.000159237 0.000140369
3.84829e-06 1.06424e-05 8.00892e-06
0.000184319 -0.000177391 0.000103171
7.74363e-06 7.00991e-06 -1.16236e-05
-2.00486e-05 -1.44929e-05 7.18681e-06
-8.56151e-06 -8.5215e-06 -1.70441e-06
-0.00015396 0.000149057 -0.000324782
5.05184e-06 -2.66293e-05 -5.32916e-05
1.96617e-06 -7.87031e-06 1.35088e-05
-2.01762e-05 -7.87223e-05 5.95069e-05
-7.80122e-05 3.67954e-05 5.47247e-05
-4.71346e-06 1.71064e-05 1.82989e-05
-0.000173734 0.0001485 -4.91528e-05
-7.96127e-06 -2.49823e-05 1.77185e-05
-0.000865324 -0.000873972 -0.000504712
-5.42252e-05 -0.00016667 0.000147588
-6.94267e-05 1.44906e-06 8.52893e-05
-4.02092e-05 -3.46005e-06 4.14885e-05
5.16618e-05 -5.87226e-05 0.000133634
1.07437e-05 -1.27801e-05 -5.36366e-06
-0.000256388 0.000349116 -0.000131592
-1.992e-05 9.88321e-05 0.000123049
-0.000100925 0.000147633 -5.09024e-05
-3.92815e-05 -2.42753e-05 1.20767e-05
-0.000113182 0.000148369 0.000179745
-1.36626e-05 -1.67834e-06 -5.53379e-06
1.93919e-06 1.88343e-05 2.44359e-05
6.04361e-05 -0.0006521 -0.00042829
-3.13263e-06 -1.20879e-05 -6.61153e-06
-0.000339031 -0.00032126 -0.000529389
-2.70293e-05 -2.2529e-05 0.00014292
-2.97075e-05 1.83568e-06 2.99888e-05
9.63538e-06 9.72756e-05 -6.12817e-05
0.000103696 -9.85833e-05 -2.58535e-05
0.00011809 1.02765e-06 0.000143571
-0.000103927 2.40196e-05 8.07849e-05
-1.74655e-05 4.85662e-05 -5.88139e-05
7.99069e-05 5.96189e-05 0.000116195
3.19846e-05 2.9381e-06 2.37992e-05
-1.84535e-05 6.17669e-05 3.16654e-05
-7.04256e-05 4.24934e-05 -4.98232e-05
-8.50938e-06 3.75677e-05 1.88506e-05
3.97227e-06 2.47582e-05 3.72906e-05
-2.98525e-05 -1.62841e-05 4.02578e-05
0.000227409 -0.00017809 -0.000370974
-1.04335e-05 1.16707e-05 1.32868e-05
-3.57359e-05 8.12433e-05 -4.53428e-05
9.36547e-05 -8.73317e-05 7.16981e-05
4.94051e-05 -1.05058e-05 6.44893e-06
-3.56206e-05 -6.87199e-07 -8.24794e-06
-3.63456e-05 -7.58489e-06 -1.0473e-05
-4.43276e-05 -1.36691e-05 2.54259e-05
4.03703e-05 4.76463e-05 1.56104e-05
7.12998e-06 4.81182e-06 -6.39186e-06
7.34783e-05 0.000101272 5.10755e-05
-2.95568e-05 -9.05884e-07 1.99917e-05
8.08896e-07 2.3261e-06 2.56147e-06
-0.000102766 -0.000239909 -0.000584811
-8.13335e-05 -3.25312e-05 5.51746e-05
0.000132115 -5.67619e-06 6.55832e-05
-0.000130888 -6.66613e-05 -4.6899e-05
-7.08975e-06 -1.54695e-05 6.63601e-06
1.3661e-06 -1.21823e-05 -1.65895e-05
4.22493e-05 5.70292e-05 -2.43322e-05
-4.31736e-06 6.59881e-06 3.61724e-06
5.83543e-06 3.99159e-05 4.17233e-06
1.1296e-05 -6.30402e-06 -6.16834e-06
-2.40568e-05 -0.00038374 -0.000376188
0.000103368 -5.20183e-05 8.8694e-05
9.69424e-05 -0.000248222 4.63486e-06
-0.000126572 -0.000155027 -0.000387429
0.000477386 -0.000213729 -0.000274931
-5.62173e-06 9.56002e-06 -1.29293e-05
4.11629e-06 8.74251e-06 -1.22001e-05
1.55722e-05 -1.82498e-05 3.44457e-05
4.47591e-05 2.33883e-05 7.1581e-05
0.000165464 -0.000236743 -0.000108634
2.17022e-05 4.60927e-06 1.45431e-05
0.000330338 -0.000133442 -0.000347888
2.16313e-05 -0.000120374 0.000115481
3.75062e-06 -6.63912e-05 6.82307e-05
-0.000204703 0.000241619 -0.000408087
3.85861e-05 -6.52342e-06 3.2507e-05
-3.51004e-05 2.55076e-05 6.20882e-05
4.05952e-06 -3.10068e-06 5.56182e-06
-8.95232e-05 -3.13528e-06 -8.91306e-05
0.000280499 0.000313709 -0.000176992
0.00057449 0.000285311 -7.5025e-06
4.15047e-06 -2.63969e-05 -4.36621e-06
1.03166e-06 3.78117e-07 6.21843e-07
2.70082e-07 -2.43583e-06 1.71914e-06
2.3917e-05 -0.000107639 8.19841e-05
1.52553e-07 -1.04045e-05 2.70803e-06
-1.44164e-06 -5.88453e-05 3.79764e-05
-0.000172075 2.66049e-05 3.08107e-05
-2.1107e-05 3.426e-05 -8.59701e-07
-0.000291771 0.000187706 0.000724836
-6.30966e-07 -4.3683e-07 1.08792e-05
-2.7956e-05 -1.56988e-05 6.15395e-05
4.8691e-06 1.83163e-05 1.04947e-05
0.000130047 0.000691791 -0.0014713
-5.66513e-06 -4.79514e-05 -9.87116e-05
-0.000242722 0.00025007 -0.000585955
0.000503071 0.000353196 -0.000973565
0.000304255 8.7335e-05 -0.000572111
-9.53372e-05 -0.00103128 -0.0025877
-1.03986e-05 -4.77437e-06 2.53282e-05
6.53369e-05 4.24686e-05 -7.2015e-05
2.9658e-05 -8.27676e-05 -4.7081e-05
-0.000355912 -0.00025905 -0.000391823
1.38707e-06 1.02701e-05 -9.56067e-07
0.000292062 -0.000245554 -0.000370803
0.000363932 0.000193645 -0.000909987
-0.000282671 0.000353167 -0.000679023
-1.1992e-05 -4.74888e-05 -2.17467e-05
2.05304e-06 0.000156194 0.000637892
-3.93024e-05 -1.34475e-05 -3.02098e-06
0.000360056 -0.000697019 -0.000437401
1.79623e-05 9.15758e-05 7.83749e-06
6.36033e-05 9.43768e-05 1.16177e-05
-7.37689e-05 -7.88338e-05 -4.36926e-06
-3.47266e-06 -0.000138683 0.000131699
0.000557608 0.000142861 -0.000380968
-1.2722e-05 4.06792e-05 4.00631e-05
-1.80253e-05 -7.12628e-06 -1.83729e-05
-9.23728e-05 0.000146922 4.79978e-05
-6.17518e-05 -8.08898e-06 3.43988e-06
4.6078e-05 -0.000453737 0.000307624
-0.000106469 -2.88791e-05 -4.51958e-05
0.000162001 9.26367e-05 0.000346703
5.52263e-05 -1.77445e-05 -8.55575e-06
3.85156e-05 3.39091e-05 -3.19161e-05
0.000222961 -0.000250484 7.42036e-05
-7.47286e-05 1.16107e-05 8.07793e-05
2.2643e-05 1.28645e-05 1.24836e-05
-1.29467e-06 -5.96141e-06 9.37061e-06
2.88545e-05 7.66215e-06 -2.31746e-05
-1.35208e-05 2.86528e-05 -4.72918e-05
-0.000171101 0.000189316 -2.11942e-05
0.000661813 -0.000498196 -0.00166766
-1.10826e-05 2.49146e-05 -4.0546e-05
0.000321483 -0.000279647 -9.11504e-05
-0.000348657 -0.000280443 -0.000514466
7.74252e-05 5.11278e-05 1.66799e-05
-1.22206e-06 0.000127128 0.000125115
-0.000179043 -8.5071e-05 -0.000335051
-4.07399e-05 3.64459e-06 2.77885e-05
-5.23582e-06 0.000109918 7.82449e-05
-5.11463e-05 4.67638e-05 7.50173e-05
-0.000189889 0.000289629 0.000898531
0.000115028 -8.01769e-05 2.27029e-05
-7.65772e-05 2.70062e-05 -1.16729e-06
3.12906e-06 -1.73875e-07 7.62999e-06
8.25036e-05 -6.78652e-05 8.13832e-05
-5.26121e-05 3.7574e-05 2.5774e-05
4.06119e-05 -8.36898e-05 -7.92277e-07
-5.54719e-05 2.05103e-05 4.78682e-05
1.1697e-05 -1.84262e-05 -4.4788e-05
-3.57702e-06 1.09974e-05 -3.66863e-05
4.23561e-05 -0.000156092 -0.000179597
-9.10293e-06 3.68584e-05 -1.90734e-05
-6.37379e-05 -0.000134071 0.000144418
-1.38663e-05 -6.49647e-06 -2.7581e-05
2.69148e-05 -3.84412e-05 -3.01027e-05
-3.09367e-05 -1.57743e-05 -2.044e-05
-2.52277e-05 -4.92388e-05 8.01938e-05
9.7579e-06 -5.25517e-07 1.51213e-05
-3.27687e-05 -6.47754e-05 -9.09074e-05
3.59276e-06 -2.12126e-05 3.20882e-07
-2.44372e-05 9.87563e-06 2.83259e-05
0.000140523 -0.000713523 0.000534977
-5.29681e-05 -8.1725e-05 -1.49632e-05
-1.37741e-05 -2.39387e-05 5.26284e-06
8.27127e-06 3.14466e-05 -1.43225e-05
-3.07316e-05 -1.3615e-05 4.7073e-05
-4.0319e-06 -2.33663e-05 2.01324e-05
5.8803e-05 -9.49354e-05 0.000128761
-7.18386e-05 0.000262225 0.000155064
-1.87115e-05 -2.5449e-05 2.29361e-05
-2.65394e-05 0.000200291 0.000140973
-3.37456e-05 -0.000102876 0.000143586
1.36975e-05 -1.82758e-05 -1.19204e-05
4.41668e-05 -2.05458e-05 0.000136966
-2.17484e-05 1.56454e-05 -4.20157e-06
-1.90666e-05 3.41078e-05 1.42716e-05
8.60473e-06 7.45197e-05 1.10113e-05
-0.000439188 -0.000875089 -0.00170744
0.00026839 -0.000341667 -0.000485539
-9.31995e-05 0.000101034 3.93181e-05
0.000661707 0.000395224 -0.00139504
-1.70888e-05 4.45481e-05 -0.00151676
3.68802e-05 -4.19241e-05 7.66842e-06
4.82488e-06 -3.4556e-05 9.17072e-07
7.27268e-05 8.15463e-05 6.70914e-05
-0.000195155 0.000199482 0.000575424
4.57377e-05 -7.77999e-05 3.18781e-05
-6.18551e-05 1.60448e-05 1.89661e-05
3.1157e-05 9.2599e-06 -2.55344e-05
4.60371e-05 -9.36033e-06 -3.89086e-05
5.7871e-05 -2.82875e-05 3.34431e-05
-9.72856e-05 0.000398905 0.000433395
3.45212e-05 1.87808e-05 1.40531e-05
-8.18153e-05 3.4432e-07 8.18379e-05
-1.57261e-05 -2.38067e-05 -1.17183e-05
-5.36339e-05 -1.53524e-05 1.04542e-05
-0.000128617 -0.000141444 0.000211624
-7.22972e-05 0.000125599 0.000180823
0.00012811 3.24567e-05 -0.000963366
0.000761029 0.00107609 0.00136629
5.25554e-05 -0.000295313 0.00103502
2.28372e-05 -7.10853e-06 1.37343e-05
-9.84052e-05 6.31476e-05 9.34201e-05
-1.66253e-05 2.8505e-06 -2.94586e-06
-9.4899e-05 0.000168837 0.000164034
0.000174577 -0.000265862 -0.000340625
-0.000414965 0.000707701 -0.000970507
3.16585e-05 7.49246e-06 1.80216e-05
1.5883e-05 6.18303e-05 2.68652e-05
-3.28771e-05 0.00035767 0.000131863
0.000584169 -0.000978057 0.000731131
7.45849e-06 -1.13655e-07 -6.30729e-06
-0.000288491 0.000111166 -0.000506291
0.000197802 -0.000220813 -0.000665962
1.68695e-05 1.19567e-05 -1.30652e-05
-0.000135102 0.000409174 -0.000992552
-3.88012e-05 -0.000112432 -0.000276169
-1.75807e-06 2.8029e-05 -3.10746e-06
0.000259083 4.05345e-05 0.000379762
-2.03959e-05 -0.000424424 0.000155257
-2.64395e-05 4.41007e-05 -7.56174e-05
2.78533e-06 1.93552e-06 -5.67312e-06
9.3604e-06 -9.49268e-06 2.42822e-05
7.08886e-05 0.000211246 -0.000333194
1.07226e-05 3.65976e-06 -1.0063e-05
-9.4087e-05 -0.000188985 -0.00034321
-3.45153e-06 -2.7629e-05 -8.75107e-06
4.97964e-05 0.000445823 -0.00050548
-0.000115081 -0.000421147 -0.000557522
5.19666e-06 2.02003e-05 3.53312e-06
-1.73683e-05 -3.89963e-05 2.44078e-05
-2.64874e-05 1.05439e-05 2.59012e-05
1.7822e-05 8.99172e-06 2.36691e-05
-6.94955e-05 -3.45122e-05 -8.59836e-05
4.27318e-05 -0.000872406 4.32804e-06
-4.70145e-05 -3.64102e-05 8.05803e-05
-2.01073e-05 -6.12649e-05 -6.54814e-05
-4.23764e-05 -3.02015e-05 -1.97483e-05
-2.5943e-05 9.17628e-05 3.2746e-06
-1.59256e-05 5.08017e-06 -1.0112e-05
2.77347e-06 -0.000100022 5.77178e-05
6.68183e-05 -0.000553073 0.000317543
-5.4986e-06 -4.39684e-06 -8.5823e-06
-0.000196457 -0.000184059 0.000198695
5.42911e-05 3.61952e-05 3.87557e-05
0.000121902 4.46305e-05 9.56394e-05
5.38344e-06 3.95382e-05 5.50253e-05
-0.000203195 0.00033427 -0.000444822
-3.24589e-06 2.15281e-06 2.96528e-06
-0.000235964 7.11472e-05 -0.000236551
-1.57761e-05 -9.11488e-06 -1.69877e-06
1.45584e-05 -2.03207e-05 1.83936e-07
-3.03256e-06 7.63746e-07 2.20686e-07
-1.43517e-06 5.03294e-06 4.07659e-07
-0.000269365 0.000330979 -0.000454004
4.23316e-05 3.40302e-05 0.000101871
-2.15798e-05 2.19891e-05 2.68552e-05
4.85462e-07 -2.05294e-06 6.36237e-07
5.90711e-05 5.58679e-05 -4.60476e-05
-0.000330302 0.000159895 -0.000206886
5.52923e-05 -0.000196283 0.000176294
3.74608e-05 8.023e-05 -1.12901e-05
0.000360947 3.46103e-05 -0.000165631
-1.79876e-06 -1.53512e-05 -9.19668e-06
-2.22142e-05 -2.79769e-05 -2.73117e-06
-5.84817e-05 4.30734e-05 2.526e-05
-5.98348e-05 0.000104863 -0.000401079
0.000111166 0.000207531 0.000293141
1.11998e-05 -1.25303e-05 6.99706e-06
0.000257656 0.000335476 -0.000338976
3.27904e-05 1.16524e-05 1.80545e-05
3.7861e-05 1.25274e-05 -1.77606e-05
3.70592e-05 4.43313e-05 -1.51115e-05
3.7275e-06 -4.94698e-05 -1.02177e-05
0.000166941 -0.000267814 -0.000123376
-7.06168e-06 -8.36083e-05 3.77328e-05
0.000960385 -0.000108378 -0.000816129
-2.8472e-06 2.93949e-05 6.94731e-08
-0.00123214 -0.000134799 0.00112437
2.66269e-05 -0.000312462 -0.000524665
-5.10014e-05 -2.98815e-05 2.89335e-05
0.000793548 -6.4468e-05 -7.01312e-05
0.000225832 -0.000377543 -0.000525532
0.000544889 0.000381832 -0.000400483
-1.74745e-05 1.97681e-05 4.80328e-05
6.06108e-06 8.62123e-06 -1.59242e-05
-1.40094e-05 -2.27155e-05 -0.000141435
-1.38561e-05 6.75665e-06 2.5543e-05
1.03686e-05 -4.33747e-07 2.3599e-06
0.00101178 0.00185808 0.00080489
0.000358158 -0.000385251 0.000847772
-1.45516e-05 0.00105182 -0.00183448
-6.87336e-06 -1.50116e-06 -1.29722e-06
-1.89718e-08 2.103e-07 -4.22594e-08
1.09379e-05 1.40209e-05 4.42882e-06
-0.000128322 -6.89554e-05 3.07781e-05
1.34282e-05 1.20735e-05 -4.86134e-05
2.47113e-05 -3.46299e-05 8.16296e-07
1.9057e-05 3.72842e-05 6.9301e-05
0.000128125 -0.00078516 -0.000147814
-7.97764e-06 -2.38233e-07 -6.25881e-06
-0.00036775 -6.8386e-05 0.000430532
0.000317014 1.88907e-05 0.000245183
1.94862e-06 1.51609e-05 1.98312e-06
-1.52676e-05 -1.11375e-05 -1.004e-05
-0.000394436 0.000297074 -7.10373e-05
-1.99396e-06 3.50711e-06 4.65666e-06
2.06216e-05 -2.11437e-05 4.83179e-06
-5.00309e-05 -3.15213e-05 1.38434e-05
-1.71014e-05 -1.77141e-05 -7.16327e-06
-0.000264861 -0.000191357 -5.11804e-05
-0.00108066 -0.000301955 0.000814364
-4.35542e-06 -2.01505e-05 1.63439e-05
-8.24538e-05 -4.73707e-05 -5.81984e-05
-0.000550578 -0.000300167 0.000204414
0.0002501 0.000490142 -3.80565e-05
-3.31032e-06 1.09478e-05 -1.6654e-05
0.00046962 0.000494836 9.55837e-05
1.14851e-05 -0.000118449 9.80667e-05
-5.60099e-06 3.2388e-07 2.20002e-05
-3.76913e-05 7.41295e-06 -7.41035e-05
2.08747e-05 1.60759e-05 3.00488e-05
0.000197179 -0.000127866 -9.77121e-05
5.66675e-05 -0.000253652 0.000109676
-1.19536e-05 1.11399e-05 6.12265e-07
1.41521e-06 5.85955e-06 5.62101e-06
4.24924e-06 1.33547e-05 -1.24999e-05
2.26941e-05 -1.66666e-05 -1.24222e-05
0.000824111 0.000117046 0.000862695
5.25862e-06 -1.23445e-06 7.19276e-07
-0.00066688 0.000629013 0.00373785
-4.29157e-05 -0.000174193 -0.0005295
1.72021e-05 1.75531e-05 5.01062e-06
-4.18734e-05 2.26809e-05 2.91189e-05
2.90326e-06 -8.59773e-06 -3.31164e-08
-0.000179181 4.9044e-05 0.000147343
1.75548e-05 -8.9741e-06 -9.50686e-06
-8.62391e-06 9.88213e-06 -1.01185e-05
-7.81988e-06 -1.949e-05 1.66795e-05
-7.8986e-07 8.05145e-06 5.39539e-06
-1.84676e-05 2.64173e-05 -7.74121e-06
-3.27188e-05 3.01459e-05 -2.33784e-06
-2.09038e-05 5.89257e-07 5.07916e-05
9.44354e-05 3.2553e-06 0.000151452
-3.38076e-06 -1.70278e-07 6.29076e-07
-0.0002044 5.15531e-05 0.000387504
-5.33108e-05 -0.00010784 -0.000132862
-2.6471e-05 -3.97685e-05 -4.44487e-05
2.06709e-05 2.84231e-05 4.24096e-05
-2.12834e-05 1.85289e-05 -3.93104e-05
-8.80754e-06 9.57946e-06 -8.35238e-07
0.000249481 0.000292679 -0.000183014
0.000118238 1.17048e-05 5.5415e-05
0.000114277 -0.000560766 -0.000243995
-5.16477e-06 6.65566e-06 1.56026e-06
4.9304e-05 -0.000165043 0.000264633
0.000969189 0.000499566 -0.000712447
1.61628e-05 -0.00016542 7.85756e-05
8.49245e-06 3.21439e-05 -1.39825e-05
-9.96564e-05 0.000184534 3.76034e-05
-2.56327e-05 -0.000208766 -0.000541667
0.000119332 -0.000292438 -0.000326106
-1.26982e-06 -2.82167e-05 2.30471e-05
-0.000222822 -2.06341e-05 -0.000185209
9.32149e-05 -0.000137502 -4.69352e-05
8.03911e-07 -2.17445e-05 -4.03537e-05
-0.000500391 -0.000675451 0.00119584
3.41578e-06 0.000127231 9.65935e-05
-0.000181878 1.89901e-05 -0.000626863
9.63401e-07 -7.78115e-08 1.66439e-05
-1.31813e-05 1.57578e-05 1.35315e-05
-1.77958e-06 -7.14403e-06 3.17111e-06
-1.31186e-05 1.04935e-05 -3.43324e-06
6.01557e-05 -1.83522e-05 -3.50461e-05
2.72598e-05 6.22857e-06 1.58036e-05
-0.000135682 -4.10319e-05 -8.7731e-05
-2.48699e-05 4.85e-05 1.45056e-05
-1.35589e-05 4.32933e-05 -4.52723e-05
7.32385e-05 -0.000160316 -0.000334974
-4.28895e-06 0.000187292 0.000180295
-1.13837e-05 -5.53688e-06 -2.18113e-06
2.62666e-05 9.70138e-05 5.87424e-06
-0.0017803 -0.00151736 0.000625941
-2.3716e-06 1.2328e-05 -1.36587e-05
2.82933e-06 3.31456e-06 -0.000497638
-0.000121004 1.41898e-05 7.06414e-05
0.000140038 -1.15818e-05 -4.47759e-05
-4.91522e-05 0.000193063 -7.8757e-05
1.97764e-05 4.7562e-05 -2.67825e-06
6.20977e-05 -1.95676e-06 -0.000203496
1.12507e-05 2.91951e-05 1.03502e-05
6.23479e-06 -1.13325e-06 5.41139e-06
0.000115704 0.00105121 -0.000177206
-0.000130847 -0.000215375 0.000178525
2.4969e-05 -8.65969e-05 0.000132366
-0.000415787 0.000196871 0.000444099
-3.04738e-06 1.4862e-06 1.49402e-06
8.09983e-06 1.64709e-06 -4.06533e-07
-9.5308e-05 0.000421863 -0.000628355
-0.000794276 0.000542568 0.00189985
2.49235e-05 5.94727e-05 0.000137723
8.43318e-05 4.35403e-05 1.31526e-05
-2.30039e-05 6.39277e-07 -2.91614e-05
2.84906e-05 1.82193e-05 1.73954e-05
1.92725e-05 -1.56797e-05 1.02284e-05
-5.88231e-05 5.77597e-05 3.87477e-05
-5.88504e-05 -7.98409e-05 3.94645e-05
-2.21546e-05 2.48474e-06 -1.73229e-05
5.1605e-08 1.57308e-06 -4.74627e-06
-0.000121905 -4.90779e-05 -1.04933e-05
4.41622e-05 -6.32962e-05 1.77655e-05
-2.60138e-05 -7.56947e-05 3.47542e-05
2.82727e-05 1.78527e-05 4.77196e-06
8.79369e-07 -4.79197e-06 4.78871e-06
2.72347e-05 -7.23369e-05 0.000163931
1.58396e-05 -5.44795e-06 4.70679e-06
1.79897e-05 -3.42607e-05 -4.65165e-05
-0.000451743 -0.00094432 0.000948463
0.00153759 0.000725354 0.000375404
0.000298435 -0.000846013 0.000706469
4.89431e-05 1.8158e-05 1.70045e-05
3.44453e-07 4.12629e-06 -4.35783e-07
1.93855e-07 1.07418e-06 -2.36564e-06
3.32852e-05 -9.32525e-05 -3.43196e-05
-4.22298e-05 -3.35555e-05 6.72032e-06
1.7662e-05 -3.38053e-05 1.44528e-05
2.12435e-05 3.60071e-05 -2.18158e-05
1.14282e-05 -3.96101e-06 -5.20095e-06
0.000322787 -0.000442479 -8.92517e-05
-2.58359e-05 1.87513e-05 -2.25563e-05
0.00010332 4.08723e-05 5.26589e-05
0.000175096 0.000248102 -0.000384332
-2.63202e-05 1.811e-05 -8.30319e-06
-0.000301617 2.56839e-05 0.000435163
6.57088e-06 8.01366e-05 -4.0752e-05
-1.86795e-06 -9.5098e-08 1.4338e-06
8.24759e-06 1.76334e-06 -1.033e-05
6.26895e-05 -5.7074e-05 -3.53444e-05
-2.0466e-05 1.47158e-05 -5.11576e-06
-0.000165253 0.000179037 0.000249218
-5.63995e-05 0.000256487 2.01292e-06
-0.000119749 3.49892e-05 1.57838e-05
0.00101226 -0.000738015 0.000695691
-3.70435e-05 6.72749e-06 -6.70297e-06
-5.24045e-06 1.80826e-05 2.88636e-06
-4.0891e-05 0.000150873 -0.00078669
4.20872e-05 8.47908e-06 3.00922e-05
-1.87863e-05 9.87994e-05 5.82138e-05
4.16788e-06 2.17483e-05 -3.00142e-06
-0.00173733 -0.000185244 -0.000804084
4.8013e-05 -6.79265e-05 -0.000801839
-3.38852e-05 -1.12419e-05 -1.22224e-05
5.07165e-06 9.63922e-07 -6.61255e-06
4.72656e-06 1.18136e-06 -1.32872e-05
-9.59457e-06 -8.67044e-06 -9.72617e-06
-1.98481e-05 0.000126164 -2.37649e-05
0.00079089 -0.000323324 -0.000403877
2.58621e-07 0.000184835 7.53447e-05
3.17473e-05 -3.89485e-05 4.1558e-05
0.000413164 -0.000157716 -0.000182626
2.3849e-06 -5.98035e-07 -7.47877e-07
0.000112249 0.00138784 0.000457829
6.45524e-05 6.33963e-05 1.922e-05
3.12318e-05 4.57649e-06 -0.00032786
0.000103501 -0.000151916 -0.000252331
-0.000260495 0.000467943 -0.00131117
-6.95297e-07 6.47864e-06 -4.05163e-06
0.000610283 -0.00107434 -0.00537542
-1.34008e-05 -2.48182e-06 2.53398e-05
-2.90294e-05 0.000625374 0.00170496
-0.000266832 0.000133007 -4.97526e-05
6.36636e-05 0.000163073 3.77314e-05
2.45332e-05 -6.67481e-05 2.7839e-05
1.99388e-05 6.0733e-06 -1.07617e-05
0.000125565 2.51044e-05 -9.04436e-05
0.000314835 -0.00076234 0.000740806
-0.000448755 -0.00204431 -0.00163125
-8.61493e-06 -6.36046e-06 0.000548621
-0.000781838 0.000113524 0.00276728
4.2754e-05 -3.83852e-06 0.00012997
-7.31319e-05 3.47989e-05 4.19742e-05
1.57662e-05 -1.41706e-06 4.45471e-05
-2.2936e-05 4.6843e-05 -6.40028e-05
7.77116e-05 -0.000145244 -0.000534381
-0.000265137 0.0013127 0.0019193
0.00137277 -0.000566758 0.002999
-3.24341e-07 -3.71619e-05 -1.10951e-05
5.05133e-06 2.85322e-05 -2.8277e-08
-5.5107e-06 6.36767e-05 1.60397e-05
3.67084e-06 -5.28683e-07 2.09175e-06
-0.000170192 -1.2019e-05 0.000244708
-0.00040465 0.000126579 -0.000184726
-1.59759e-05 -8.97601e-05 1.16724e-05
8.89861e-06 -3.69931e-05 6.06069e-06
4.3026e-05 -5.22289e-05 -4.4065e-05
1.81973e-05 2.70401e-05 -2.09423e-05
0.000105837 0.000118428 2.27797e-05
2.31238e-05 4.89144e-05 5.24375e-05
-5.91072e-05 -9.48913e-07 0.000103505
-3.9374e-05 5.47118e-06 0.000114251
6.10823e-06 -9.66763e-06 -6.86927e-07
2.24197e-06 -1.51323e-05 -1.18169e-05
-8.75203e-07 -6.60981e-06 3.45129e-06
2.23452e-05 9.60754e-06 1.0644e-05
-8.53584e-06 -1.89179e-05 1.79295e-05
-0.000194384 -0.00071274 -0.000633404
-0.000249648 0.000141878 0.000208023
-5.02667e-05 -0.000159872 0.000366881
-9.3625e-05 -0.000115842 -9.34747e-05
-4.66349e-05 0.000749967 -2.32079e-06
-3.23027e-05 1.39404e-05 -1.02468e-05
-0.000189022 0.000276314 -2.32021e-05
-0.00020479 0.000346557 -0.000269645
5.64328e-05 -1.67168e-06 -3.85973e-05
-0.0002749 0.000375994 -0.000318964
-1.64374e-05 1.01754e-05 1.1798e-05
-9.4898e-06 -4.35957e-05 1.30124e-05
-0.000209039 0.000150555 0.000576471
6.7337e-06 1.96084e-05 -4.52214e-06
-3.83437e-06 -5.32095e-05 -3.89678e-05
-3.07855e-05 -1.07685e-05 -3.95621e-06
-4.08572e-07 2.70617e-07 -7.50527e-08
-7.55595e-05 9.4042e-06 0.000156908
0.000415604 -0.000471338 -0.000755994
2.47654e-05 2.77442e-05 -8.37775e-06
3.05174e-05 3.90417e-06 -2.77619e-05
-7.54728e-05 4.30954e-06 3.24145e-06
-9.25234e-06 -5.29419e-05 -2.66649e-05
-0.000313565 4.37295e-05 -0.000116078
5.38794e-06 -5.36755e-06 -5.13362e-06
-0.000155009 -4.77649e-05 0.000320276
-3.64109e-05 -3.6034e-05 3.75752e-05
-6.21699e-05 7.79951e-05 -5.62853e-05
0.000623456 0.000177549 -0.000490925
-0.000281212 -0.00129529 0.00101994
-5.46948e-05 -1.37453e-05 -4.32835e-05
-9.13052e-06 -9.44829e-06 -2.51774e-05
-0.000100615 -4.32762e-05 -1.96177e-05
1.72035e-05 -8.67306e-06 -2.04139e-06
-0.000307927 5.77698e-05 -0.000201499
0.000341836 0.00014548 -9.52225e-05
-7.77798e-05 -0.000104537 -0.000182829
-2.4812e-05 6.64642e-07 3.75139e-06
3.03415e-05 -5.42904e-05 8.41909e-05
-4.44461e-05 7.45674e-06 2.45027e-05
1.00676e-06 0.000145806 0.000174145
-0.00103561 -0.000841847 0.00132463
3.07342e-06 -9.36396e-06 5.1219e-06
-0.000257414 -0.00018894 -0.00039177
-0.00104979 -3.02233e-05 -0.00081286
-0.000145503 2.34782e-05 -9.45943e-05
-7.71543e-06 -8.04416e-06 5.57132e-06
-4.56215e-06 -3.01316e-06 -1.63938e-06
0.000231764 8.87527e-05 -0.000191514
-0.00142758 -0.000601163 0.00239015
1.15345e-05 9.4212e-06 2.20035e-05
-0.000256004 -0.00029648 -0.000176345
0.00121542 0.000853991 -0.000449059
-9.71116e-05 0.00063004 0.00110982
-7.6757e-06 1.40782e-05 2.46034e-05
5.33766e-06 -1.17816e-05 3.72373e-06
-1.24676e-06 1.56706e-06 1.08e-06
0.0041893 -0.000992183 -0.000542961
5.21775e-05 -1.544e-05 -5.12442e-05
5.79325e-05 0.000380784 0.00071549
-0.000218783 -0.000247222 -0.00112429
0.000123424 0.00115623 0.000517598
0.000118322 6.43813e-05 -6.60978e-05
-2.30569e-06 4.19925e-05 -2.35505e-05
-1.33274e-06 7.89711e-07 -6.0882e-07
0.000726155 -0.000473717 -0.000223216
-1.03454e-05 -5.66892e-07 1.57367e-05
0.000517857 -0.000343105 -0.00105303
1.3253e-05 -4.03095e-05 5.27348e-05
-0.000144771 0.00127182 -0.0015184
2.46382e-06 7.27668e-06 6.82853e-07
1.03547e-05 1.3672e-05 2.35844e-05
4.8179e-06 1.82219e-05 -3.28789e-06
-1.97563e-05 1.09492e-05 1.98892e-05
-0.000264785 4.73159e-05 6.81147e-05
-9.72219e-05 5.58616e-05 -0.000234354
-1.52375e-06 1.9999e-06 -2.11702e-07
-4.05945e-06 -2.06989e-06 8.13357e-05
-4.07193e-06 -9.00918e-07 1.30709e-06
1.11908e-05 2.44732e-05 -2.30481e-05
0.000302747 -8.24332e-05 -0.000154772
0.000548744 0.00065924 -0.00127482
1.18863e-05 9.59307e-06 -2.27e-05
2.4716e-05 -3.31028e-06 3.55101e-05
1.46233e-06 -4.33836e-06 1.53498e-06
-9.6429e-05 6.2827e-05 8.43009e-06
2.33018e-05 -2.49746e-05 -2.08889e-05
0.000613932 3.33959e-05 -0.000297943
7.41953e-06 -3.91134e-05 1.16673e-05
-8.52093e-05 1.23291e-05 -5.23113e-05
-2.95989e-05 3.30778e-05 -3.34512e-05
-7.22143e-06 -1.39048e-05 -2.67535e-05
-2.2271e-05 1.05806e-05 -3.03196e-06
0.000157786 3.75904e-05 -0.00014871
1.35463e-05 -8.03007e-06 5.9968e-06
-9.00659e-07 -2.36778e-07 -4.87505e-07
1.42434e-06 -1.90272e-06 8.37622e-07
3.43514e-05 0.000112383 -4.78351e-05
-8.42968e-05 -6.09502e-05 -2.84285e-05
-5.74695e-06 6.44078e-06 5.70964e-06
-2.26106e-07 2.20603e-05 1.36419e-05
2.3717e-05 -1.00212e-05 -1.2186e-05
8.17797e-05 0.00184918 0.00166666
-1.738e-05 0.000154896 -0.000338347
-0.000208896 -0.000179337 3.12576e-05
6.98599e-05 9.96637e-05 -8.79422e-05
5.06902e-05 -0.000399719 -0.000374945
-5.54156e-06 5.55799e-06 -4.42135e-06
0.000779379 0.00157042 -0.000658212
-2.61284e-05 -3.60604e-05 -9.22261e-06
0.000327439 0.0009878 0.00043587
6.8566e-06 -8.13551e-06 -1.48953e-06
-0.000227765 0.000249021 -0.000340432
5.90971e-05 -6.49697e-06 0.000143008
0.000177985 -0.00103671 -0.00297961
1.63452e-05 -4.864e-05 3.8614e-06
2.04036e-05 2.28521e-05 1.6481e-05
2.66026e-05 -4.20169e-06 9.53161e-06
2.32811e-05 0.000138411 -6.6249e-05
-8.95185e-05 -0.000424176 0.000153264
-1.35253e-05 1.01752e-05 -1.59211e-05
5.24734e-06 -4.89159e-06 1.35094e-05
0.000380814 -4.06035e-05 -0.00064548
-6.78138e-07 -2.08708e-06 1.69386e-06
8.61909e-05 -4.87005e-05 3.63564e-05
6.67619e-06 1.90462e-05 2.86124e-05
-7.1395e-06 -1.82119e-05 1.10594e-05
-0.000678717 -0.000273308 0.000571272
1.50514e-05 -0.0002822 -7.50847e-05
1.98743e-05 -4.93245e-05 1.7341e-05
3.57998e-05 3.30838e-05 4.70062e-05
6.3643e-05 -1.45129e-05 -4.92407e-05
-8.23158e-07 1.52129e-06 8.19018e-07
-8.95801e-05 -0.000434603 0.00105817
6.88988e-07 2.24945e-07 7.72423e-06
-2.77699e-05 -2.31338e-05 -4.05353e-05
0.0010406 0.000448071 -0.000595416
-2.30634e-05 -4.41525e-05 -2.61557e-05
0.000271912 -0.000782223 -0.00121208
-0.000256418 -0.000352591 0.000342539
0.000889026 -0.000627686 -0.00131758
-0.00128173 -0.000428915 -0.00147144
0.000744293 1.9202e-05 -0.000729116
-4.71528e-05 -0.00065215 0.00148251
5.61577e-05 7.84099e-05 -1.89958e-05
0.000426824 -0.000186217 4.91875e-05
-0.000178091 -0.000576075 -0.000131043
-4.9299e-05 -0.000154189 -0.000243437
5.35907e-06 -2.47172e-05 2.52486e-05
-2.6193e-05 9.72459e-05 3.31238e-05
0.000123021 8.50708e-05 -0.000172182
-1.25974e-06 -1.46727e-07 -1.49688e-07
1.13935e-05 -6.03313e-05 -2.25655e-05
9.34033e-05 8.93257e-06 -1.08988e-05
-5.00778e-06 -4.38714e-05 1.52634e-05
0.000107775 -5.32182e-05 0.000194732
0.000404359 0.000720366 0.00013864
-2.91404e-05 1.97708e-05 -3.00635e-05
-2.80781e-06 7.06784e-06 -2.34874e-06
-4.99762e-06 1.34341e-05 4.1113e-08
-0.000403393 -0.000705022 0.000765221
2.30964e-06 -4.24622e-06 1.23847e-05
-7.78956e-06 -0.000267657 0.000448555
2.55867e-07 2.56846e-07 3.92578e-07
-0.0003522 0.000243882 -0.000589344
7.37914e-05 -2.75669e-05 -5.05724e-05
-0.000242541 0.000349118 -6.94117e-05
-0.000527253 1.72805e-05 -0.000900407
-0.00033533 -0.000809635 9.45742e-05
0.000742026 -0.000622719 0.00188919
-4.09753e-05 1.70398e-05 -1.89762e-05
-2.15546e-05 -0.000308507 0.00010685
0.000103282 0.000139342 -2.75967e-05
6.65949e-05 7.35847e-05 -0.000104438
-4.31378e-06 1.44341e-06 6.72248e-08
3.6006e-06 -3.5718e-06 3.21603e-06
-0.000974039 0.00109774 0.00161737
6.76002e-06 5.25041e-05 -9.77966e-06
-7.53753e-06 1.04005e-05 -5.84516e-06
-3.5185e-05 -0.000175597 -0.00022386
-2.73845e-06 5.51772e-06 -1.94394e-06
-0.000345926 0.000565163 0.00150174
-1.43418e-05 3.43469e-05 -2.11375e-06
-2.91457e-05 -9.87389e-06 2.86569e-05
-0.00013004 -4.31334e-05 0.000550413
1.1607e-05 -0.000175896 -0.000145345
1.73135e-05 -6.59864e-06 4.38147e-06
0.000112498 0.000168694 -0.000234387
-0.00033415 -0.000808787 0.00161034
-1.72553e-05 -4.42417e-05 -0.00010603
0.00128061 -0.000537429 -0.00117307
0.000393538 -4.49189e-05 0.00022403
7.53338e-06 2.84465e-05 -1.9861e-06
-0.0008406 0.000818581 0.000273423
-2.22825e-05 0.000980357 0.000616583
0.000630191 9.55787e-05 -0.0016568
-5.56717e-06 4.82291e-07 -2.43238e-06
5.05908e-05 0.000121786 6.26294e-05
1.94708e-05 -0.000110747 0.000249046
-2.27648e-06 -1.37236e-05 -2.70344e-06
5.72411e-06 1.20068e-05 -4.38574e-06
-5.93532e-05 -0.000366566 0.00112666
8.90284e-06 1.44526e-05 1.15065e-06
-4.84243e-05 -9.22371e-06 -2.95859e-05
-0.000124699 0.000426885 0.000928357
-9.70434e-05 -5.3486e-05 -0.000102204
8.11376e-06 -1.00547e-05 -2.82617e-05
-1.78589e-05 -8.33034e-05 4.62303e-05
5.20985e-05 -7.66495e-06 -2.43587e-06
0.000170507 -0.000259715 0.000119401
0.000307938 -6.96181e-05 -6.8269e-05
-0.000138393 -0.000787654 0.00226982
8.66238e-05 9.32508e-05 -7.56127e-05
1.06949e-05 -0.00060427 0.000273529
-1.31006e-05 -4.45507e-05 -3.53673e-05
-2.12761e-07 3.14415e-07 7.62307e-07
-0.000883587 -0.00140992 -2.37721e-05
3.35682e-05 6.04288e-06 0.000172647
-1.03093e-06 1.76842e-05 3.95086e-05
-2.69281e-05 -4.38881e-05 1.56956e-05
1.18656e-05 3.40487e-06 1.06468e-05
-0.000151548 0.00105844 -0.000805551
-0.000112971 -7.74878e-05 -0.00102918
9.52507e-06 2.62764e-05 2.03037e-05
0.000259499 -0.000302024 -0.000335924
0.000667075 0.00261197 -0.00141256
-0.00123696 -0.000732483 -0.00152693
2.2329e-05 1.35085e-05 3.16981e-05
1.51246e-05 1.77454e-05 -1.57794e-05
-9.68685e-05 -0.000441597 0.00237262
-0.000302454 0.000539978 -0.000608402
5.60637e-06 6.93675e-07 7.87749e-07
-0.000240462 -0.00170067 0.000954413
-0.00139811 0.000330561 0.000595947
3.46883e-06 -9.70455e-07 -3.7482e-07
0.000117563 -0.000286915 0.000347738
0.00017983 0.000182298 -0.000166932
9.16639e-06 -5.32405e-06 -5.79514e-06
-2.14636e-05 -2.61761e-06 1.75503e-06
8.14246e-05 3.99069e-05 -1.56249e-05
3.455e-05 -1.67266e-05 -4.53541e-06
-3.22749e-06 6.82728e-06 -2.06751e-06
4.96254e-05 5.27706e-05 -2.86837e-05
5.27472e-05 5.85241e-05 -5.57445e-06
6.29488e-05 9.86323e-05 0.000113461
-6.14339e-05 0.000166797 -3.63035e-05
-0.000904395 0.00217951 0.00276511
0.000771422 -2.40506e-05 7.16237e-06
4.17791e-06 -6.71542e-06 1.15269e-05
-0.000100036 -0.00040673 -0.0004961
1.45373e-05 -5.97076e-05 4.34048e-05
-8.60616e-05 -0.00014893 -1.56867e-05
-1.19663e-05 -2.45454e-05 -4.68615e-06
1.41865e-05 5.38544e-06 7.26297e-08
4.80146e-05 -0.000164783 5.46941e-05
9.80471e-06 9.29854e-06 6.16691e-06
-2.34324e-05 -1.21568e-05 -3.21809e-05
-1.01879e-05 -5.61388e-06 -1.14081e-05
3.57178e-05 1.21939e-05 -3.99017e-06
0.000192987 0.000559669 0.000441644
-1.05396e-05 5.73621e-05 7.58493e-05
1.46702e-05 -2.49163e-05 -1.5781e-05
0.000210124 0.000248715 0.000334354
-1.38782e-06 3.18148e-05 -2.19983e-05
-7.927e-06 -2.77412e-05 -1.07433e-05
-7.23685e-07 5.4788e-05 -1.70708e-05
-1.32476e-07 1.59961e-07 2.3137e-09
4.70827e-06 3.69449e-06 -2.26759e-06
2.69893e-06 -1.85287e-06 2.19289e-06
2.82212e-05 1.15555e-05 -8.92118e-06
2.86471e-05 1.25458e-05 -4.45224e-06
1.96748e-05 6.06356e-06 1.88996e-05
0.000201303 0 -1.74952e-07
5.49584e-05 0 2.48371e-05
9.43984e-06 0 1.67885e-05
6.332e-05 0 -8.05876e-05
-5.15183e-06 0 -1.38288e-05
3.53228e-05 0 8.21277e-05
8.03252e-05 0 -2.03976e-05
2.79671e-05 0 1.26675e-05
0.000321969 0 0.00106606
4.59213e-05 0 1.93544e-05
0.00012037 0 1.43682e-05
0.000307304 0 0.00102024
2.50771e-06 0 -6.55739e-06
8.92969e-07 0 9.47619e-06
2.73845e-05 0 1.54142e-05
-2.20949e-05 -1.40214e-06 0
0.000258306 0.000399816 0
-5.94707e-06 6.34052e-05 0
-3.74852e-05 4.26585e-06 0