<?xml version="1.0"?>
<VTKFile type="UnstructuredGrid" version="0.1" byte_order="LittleEndian" compressor="vtkZLibDataCompressor">
 <UnstructuredGrid GhostLevel="0">
  <Piece NumberOfPoints="839" NumberOfCells="839">
   <PointData>
    <DataArray type="Float64" Name="Elongation" NumberOfComponents="3"/>
-1.30801e-05 -2.18304e-05 -7.87357e-08
-2.18835e-06 -1.53193e-05 1.58604e-07
-1.19472e-05 -2.66168e-05 2.15935e-07
-2.69349e-05 -2.89328e-05 3.86992e-07
-2.6963e-05 2.11174e-06 -4.52353e-07
6.40911e-06 -2.68593e-08 3.99733e-07
-1.60209e-05 -5.28468e-05 1.75174e-06
-2.38432e-05 2.35203e-05 1.26821e-06
-0.000175941 -0.000709161 8.98513e-05
-6.86373e-09 -2.8714e-06 3.87619e-06
-1.1693e-05 -2.2179e-05 -4.25457e-07
1.39622e-06 7.75828e-05 0.000115312
4.25189e-06 -3.4944e-05 2.09969e-07
-5.15815e-05 -0.000127542 -5.80722e-07
0.000143628 3.48508e-06 -0.000202143
-1.48056e-05 -0.000111997 2.88709e-07
-1.68036e-05 2.57289e-07 0.000485211
-1.29388e-05 -9.66673e-05 6.03845e-07
1.10992e-05 0.000382727 3.84341e-05
-1.32329e-06 -1.82364e-07 -0.000217696
-2.60724e-05 -0.000106303 4.71456e-07
6.44004e-06 0.000297824 0.000513456
-4.2429e-05 -2.47235e-05 -2.52147e-08
-2.26256e-05 -3.86393e-05 4.69483e-06
-7.42736e-06 -2.56825e-05 -7.07998e-07
2.04454e-07 -6.09263e-05 0.00019948
-1.34154e-05 -8.87574e-05 -2.41286e-06
-1.44137e-06 -3.70207e-05 1.19249e-05
-5.5394e-05 -5.2306e-05 -3.23507e-06
-6.79139e-06 -0.000196448 0.000126435
-1.91362e-05 -4.27464e-05 -1.85293e-06
-6.96699e-06 -0.000201607 4.38164e-05
1.41952e-05 -5.66531e-07 7.27651e-05
-4.07459e-05 -5.85924e-05 -1.91042e-06
-9.15468e-06 -0.000268245 5.61208e-05
2.8919e-05 -3.93908e-08 -2.55333e-05
-3.06364e-05 -5.55853e-05 -1.66332e-06
-4.36041e-06 -0.000204699 0.000351537
-5.52665e-05 -5.71247e-05 -7.64786e-07
5.09202e-05 4.30014e-06 -3.52374e-05
-1.37681e-05 -4.8013e-05 -1.87902e-06
-1.69038e-06 1.83538e-05 0.000359366
-3.73871e-05 -9.58151e-08 0.000337824
1.42789e-06 -5.09401e-05 -1.62183e-06
1.04824e-07 5.08026e-06 3.0787e-05
4.5376e-05 -1.56853e-08 -2.89268e-05
-6.35988e-05 -2.20933e-05 -3.27759e-06
-4.39075e-09 -3.62007e-07 -1.83786e-06
9.88225e-06 -3.11535e-05 -3.55498e-07
-3.90931e-05 -3.94061e-05 -1.32709e-06
-3.14392e-05 -3.88763e-05 -1.2044e-06
1.4669e-07 2.33448e-06 -0.000240525
-6.66918e-05 -2.91603e-05 -1.05846e-06
-9.79573e-05 -1.87847e-05 1.17242e-05
1.76282e-05 1.59326e-07 -5.67854e-05
-4.25013e-06 -4.31445e-06 -2.70611e-07
-2.10957e-08 -8.01854e-07 -1.03759e-05
4.34106e-07 9.64533e-09 5.71113e-07
-2.98223e-05 -4.17515e-05 -2.80623e-06
-4.32271e-08 -6.62315e-06 6.31701e-05
-8.33234e-05 -2.64658e-05 -4.45724e-06
-1.2196e-07 1.11962e-05 0.00012894
-1.13109e-05 -4.14555e-05 -1.8068e-06
-4.00754e-05 -4.79229e-05 -1.79129e-06
-9.28529e-08 -7.95835e-06 4.17788e-05
9.77666e-06 6.75921e-08 -8.46464e-06
-3.77352e-05 -6.12724e-05 -2.49394e-06
-4.43112e-05 -3.61903e-05 -1.35572e-06
-0.000205522 -0.000269558 1.92539e-05
-1.52989e-05 1.04891e-05 3.48197e-05
0.000109941 0.000162556 -3.9954e-05
-7.89856e-07 3.89747e-08 0.0001537
1.63979e-07 0.000101826 5.8055e-05
-1.02354e-05 -2.06354e-05 -1.72913e-06
1.23524e-07 6.59648e-06 -1.669e-05
-5.11501e-05 -3.27473e-05 -3.87441e-06
3.65156e-07 2.40605e-05 -7.49522e-05
-5.69261e-05 -2.55236e-05 -3.71786e-06
5.10083e-08 7.01537e-06 2.52691e-05
-1.33821e-05 -4.24403e-05 -2.24825e-06
-2.24342e-05 -6.468e-05 -1.10302e-06
-2.54655e-06 -7.8087e-05 -9.78348e-07
-1.70889e-05 -3.93107e-05 -4.51056e-07
-3.68942e-05 1.8539e-05 1.02739e-05
-4.75365e-05 0.00158193 -0.000702824
-0.000163406 6.12252e-05 0.000228265
-0.000212769 0.0001461 0.000128054
1.32224e-06 -2.00411e-08 -6.96099e-05
1.23667e-07 0.00010915 2.52052e-05
-1.3204e-05 -4.89507e-05 -1.92989e-06
-2.7453e-06 0.000108795 -9.18334e-05
-9.66016e-06 -4.15264e-05 -1.75599e-06
-9.74856e-06 -5.69539e-05 -1.90731e-06
-7.62873e-08 3.09023e-06 3.4896e-05
3.26134e-05 -7.10132e-05 7.65409e-07
1.92698e-07 2.05989e-05 0.000132203
0.000280462 -1.49838e-05 0.000302761
-5.22078e-05 -4.63362e-05 -8.08638e-07
9.85936e-08 -3.04078e-05 4.67655e-06
-4.61852e-05 -4.721e-05 -5.36974e-07
-1.59045e-05 3.79649e-06 -1.11996e-08
-1.4027e-05 4.99118e-05 1.25142e-07
-2.02662e-06 -3.75255e-09 1.81712e-05
-6.7461e-06 -9.13162e-05 1.54035e-06
-5.38377e-05 0.000640224 -0.0010264
-2.67565e-05 -5.1014e-05 9.97159e-07
-4.21055e-05 0.000641102 0.000366418
-2.54271e-05 -2.20059e-05 -2.08465e-07
-6.5481e-06 0.000127141 -0.000110631
-3.55002e-05 1.31342e-06 -0.000332845
7.88686e-06 0.000464536 -1.7329e-05
0.000134377 -7.38564e-05 3.57907e-06
-9.16884e-07 -1.72441e-06 2.80621e-07
-3.21246e-05 4.63021e-05 -3.88536e-06
6.10315e-05 -0.000145943 0.00011027
-9.29177e-06 3.24827e-08 -3.35125e-06
5.09679e-06 3.40537e-05 -3.72441e-07
2.42133e-05 0.00111943 0.00103889
3.5115e-05 -8.02043e-05 2.50346e-06
-5.05024e-06 3.64322e-05 -0.00011661
-2.073e-05 -2.61798e-05 2.1623e-06
-9.48207e-06 2.06914e-05 -0.000346162
-2.46528e-05 -7.41567e-05 1.68079e-05
9.94247e-05 -6.61652e-05 5.73555e-06
0.000105814 -0.000844405 -0.0013843
-3.01169e-05 -1.31031e-05 4.97386e-06
4.85852e-05 -9.21188e-06 0.00021381
-5.10274e-06 4.97132e-05 2.32706e-06
-1.13158e-05 -9.74856e-06 -9.7153e-06
1.64223e-06 9.69682e-07 6.36866e-07
-4.48951e-06 -2.02688e-06 -1.53119e-06
-5.42095e-06 -1.30969e-06 -1.35875e-06
5.84675e-07 3.59422e-05 2.85591e-06
1.68995e-05 1.05969e-05 4.62939e-06
-8.98374e-06 5.96031e-06 -2.44968e-06
-3.65387e-05 -0.000251866 5.82414e-05
-1.03528e-08 -2.67196e-06 -7.17011e-07
-8.82988e-06 -7.43278e-06 -5.04688e-06
1.44823e-05 5.4515e-06 3.48473e-06
3.54908e-05 7.26643e-05 1.36511e-05
-3.025e-06 3.31428e-05 3.62154e-06
4.67423e-06 2.91233e-05 3.3483e-06
-5.88603e-06 3.28098e-06 -4.55898e-08
5.07961e-06 1.76899e-05 1.35434e-06
1.19942e-05 -6.02138e-05 4.65126e-06
-1.36618e-06 -1.76941e-06 -5.7269e-07
-1.62181e-05 -1.23359e-05 -2.98154e-06
8.49901e-06 -1.72007e-05 -7.09358e-07
-1.35384e-05 -5.01704e-07 -1.91165e-06
0.000288806 1.20735e-05 0.00137238
6.08844e-06 -8.55901e-06 -5.50689e-07
3.19548e-06 -1.21041e-05 -1.05113e-06
2.28321e-05 -1.29455e-05 6.73906e-07
2.58331e-05 1.02793e-07 -7.43855e-05
4.49255e-06 1.48151e-05 2.84284e-06
-2.47474e-05 1.06546e-06 -2.00595e-06
7.97014e-06 -9.88836e-06 1.357e-08
-1.39082e-05 -2.42463e-06 -2.0332e-06
1.26446e-05 -1.95389e-06 4.12771e-07
1.02256e-05 2.92999e-06 7.04154e-07
2.89875e-06 -0.000144646 0.000471832
5.32791e-06 4.9769e-06 7.48918e-07
0.000103779 8.56893e-06 -6.84005e-06
-9.28332e-05 -0.000115454 0.00153813
-8.41534e-08 -2.14236e-05 5.97546e-05
1.59845e-05 1.89652e-08 -1.95252e-05
-1.74686e-06 1.44298e-07 -8.02471e-08
-3.73325e-05 -3.04316e-05 -6.64157e-06
1.05311e-05 -5.30692e-06 6.73644e-07
-0.000120423 -5.82388e-06 -0.0011393
-1.64847e-05 -2.29798e-05 -4.71251e-06
1.96832e-05 1.49217e-06 9.53089e-07
0.000354574 -4.00685e-05 -0.00133725
2.38779e-06 -1.2515e-05 -1.39542e-06
4.79313e-06 -2.28284e-07 0.00135642
1.04329e-05 -7.80994e-06 -2.14734e-08
-2.87005e-05 -0.000393149 -0.000803665
8.405e-05 7.517e-05 -5.98801e-07
-6.26105e-07 -1.27214e-05 -4.53369e-06
1.35785e-06 9.78867e-10 2.83353e-05
-6.88312e-06 -2.36398e-05 -4.51209e-06
-2.42916e-05 -3.82121e-05 -9.03078e-06
-2.62955e-05 -0.000231023 -0.000845288
-5.61481e-06 -2.28071e-05 -4.95153e-06
-1.92554e-05 -1.5221e-05 -5.30959e-06
2.10487e-05 -1.51901e-05 -2.17236e-06
2.11072e-05 -4.5501e-06 -4.18223e-07
5.93454e-06 -6.76032e-06 -7.53674e-07
1.34343e-05 -3.30838e-05 -8.17684e-06
-0.000421495 0.000220354 0.00141673
-0.000113072 0.000141783 -3.39684e-07
-1.56711e-07 -3.48141e-05 3.39523e-05
1.01203e-05 -5.83694e-09 -1.23525e-05
6.8402e-07 5.54103e-06 8.00684e-07
-1.6472e-05 8.08373e-06 -3.65941e-07
1.48276e-05 -4.34324e-06 1.27562e-06
-1.72158e-05 -4.56109e-06 -2.57824e-06
2.71049e-05 2.54612e-06 8.95427e-07
8.03393e-06 7.49845e-06 5.15921e-07
1.49068e-05 -5.48769e-06 2.38358e-07
7.39724e-05 4.48374e-05 -3.21338e-05
3.93724e-06 -7.87862e-06 5.56443e-06
1.86345e-05 9.14015e-05 6.79897e-06
-3.04149e-05 5.9865e-05 -1.69676e-06
-1.78339e-05 0.000184335 1.69012e-06
-5.62499e-06 1.82639e-05 -1.20713e-06
0.000182449 0.000133616 -1.65463e-05
5.22476e-06 9.42868e-06 -2.29069e-06
4.85288e-05 2.70061e-05 -7.21776e-06
-7.91279e-05 -7.51694e-05 -0.00041053
-9.5323e-07 -0.000269788 5.73083e-05
1.6303e-06 -5.40182e-09 4.12334e-07
-0.000238097 0.00102483 0.000219017
-3.46814e-06 -0.000122422 -2.66243e-05
-8.46202e-07 3.95739e-06 9.70456e-07
0.000209556 -8.88942e-05 -2.31099e-05
-6.29144e-06 3.47053e-06 -1.7577e-06
-1.2205e-06 -0.000135508 -0.000105652
4.87781e-07 1.93045e-09 4.30984e-07
7.17313e-06 7.32602e-09 -5.19245e-05
4.06952e-06 6.02566e-06 4.57653e-06
7.61224e-06 8.28425e-06 5.73064e-06
1.50746e-05 1.79269e-05 1.17922e-05
-0.00286376 -0.00252794 -0.00254278
3.70526e-09 -1.1726e-06 5.31329e-06
-6.09567e-05 -0.000129323 -0.000194777
6.10922e-06 9.56915e-06 8.62288e-06
3.02554e-05 9.27621e-05 3.17178e-05
1.88729e-05 2.91674e-05 1.10752e-05
6.93271e-06 2.34966e-05 6.01032e-06
4.59191e-06 1.66257e-05 3.91455e-06
1.19146e-05 2.40219e-05 7.59766e-06
-2.38222e-07 9.63212e-06 0.000129154
-4.68039e-06 2.83408e-08 8.89151e-05
3.04306e-06 7.396e-06 4.89977e-06
3.23222e-05 3.83479e-05 1.03189e-05
1.18308e-05 1.41671e-05 4.36351e-06
1.97502e-05 2.04798e-05 5.86672e-06
9.40473e-06 2.66645e-05 4.72397e-06
6.46685e-06 4.64788e-05 7.12447e-06
1.5689e-05 2.35661e-05 6.7032e-06
0.000378278 6.72169e-05 0.00114829
2.28315e-05 1.18427e-05 1.35329e-05
1.51471e-06 -7.21698e-09 7.44722e-07
8.36962e-06 7.66543e-06 2.93514e-06
1.2757e-05 1.03644e-05 2.52649e-06
1.23143e-05 1.76322e-05 4.34636e-06
2.64377e-05 1.46989e-05 6.04676e-06
0.000272985 1.91685e-06 0.000923798
9.97897e-06 2.35396e-05 3.66007e-06
1.1927e-05 2.37868e-05 3.75697e-06
9.68545e-06 1.41483e-05 3.46776e-06
0.000234275 7.68471e-06 8.13908e-05
4.19615e-09 4.72688e-06 -1.53446e-07
1.22335e-05 1.8774e-08 -4.48726e-05
1.85762e-06 1.07372e-05 4.51754e-06
1.12434e-05 1.31478e-05 2.81322e-06
1.17039e-05 2.92055e-05 6.22963e-06
2.44655e-05 1.58482e-05 6.10337e-06
0.00018056 -8.7768e-07 0.00120966
1.17147e-05 4.4787e-05 8.36676e-06
8.33167e-06 3.50019e-05 6.32412e-06
9.91975e-06 1.96681e-05 4.74064e-06
-8.61518e-05 1.51269e-05 -2.57145e-05
3.85263e-06 -1.35512e-08 1.38236e-05
2.38298e-06 1.44149e-05 3.08781e-06
1.13637e-05 1.16615e-05 3.58963e-06
7.29753e-06 1.2945e-05 4.1557e-06
1.00743e-05 1.41868e-05 4.59432e-06
-2.17225e-05 -9.61798e-07 0.00133985
7.56729e-06 2.60093e-05 8.14874e-06
2.06849e-06 3.25176e-05 9.5632e-06
3.63329e-06 1.31401e-05 4.69593e-06
0.000310251 -0.0012641 -0.000166972
-0.00170232 0.00164087 -0.00140729
3.22792e-09 1.58934e-06 -3.81242e-05
-2.14596e-06 4.16618e-09 -4.47694e-05
-4.21938e-07 1.32602e-05 3.03752e-06
1.08962e-05 1.11667e-05 3.49491e-06
1.01409e-05 1.49442e-05 5.10679e-06
1.69466e-05 1.31712e-05 4.07147e-06
3.26436e-05 5.1823e-06 4.98879e-06
-1.21492e-07 -9.94941e-07 -1.04958e-07
1.06915e-05 -8.42669e-06 1.22368e-06
-0.00111016 -0.000150187 -0.000544324
-8.82721e-05 0.000128422 0.000147003
0.000632151 0.000580282 -0.00155943
-0.000793969 0.000568618 4.57685e-05
-3.41917e-08 -2.60428e-05 -3.65848e-05
-3.16077e-05 0.000263517 0.000122515
-2.47816e-05 0.000142016 6.0353e-05
5.39291e-06 6.92562e-05 2.88678e-05
-0.000194774 -0.00140646 -0.000510932
4.2563e-05 0.000289989 0.000100784
6.48772e-05 -6.6658e-05 1.07483e-05
-0.00126658 -0.000137312 -0.00016661
-5.85696e-07 -0.000122842 -0.000122312
6.84506e-07 -1.42894e-06 -6.6564e-07
-5.15392e-05 0.000157944 -0.000103435
0.000230063 -6.27117e-05 0.000192725
0.00275394 0.00098361 0.00397775
5.03281e-06 -1.10391e-08 -6.38575e-06
2.1311e-07 -6.71871e-07 -1.43813e-07
2.99741e-06 9.64486e-07 1.44021e-06
5.65927e-06 2.49013e-06 3.13699e-06
7.1542e-06 8.87076e-06 7.75477e-06
1.44059e-05 5.92868e-06 4.25269e-06
-3.79895e-06 -4.05986e-05 -8.61422e-06
-4.57052e-06 -1.32862e-05 -3.34186e-06
-3.19713e-06 -2.49926e-05 -6.34582e-06
-9.95987e-06 -1.24152e-05 -5.93578e-06
-4.38044e-05 -9.5303e-06 5.90021e-05
1.36174e-06 8.13752e-07 7.62146e-07
-1.16856e-05 -5.31423e-06 -1.06387e-06
-1.34362e-05 -4.81791e-07 -2.12212e-06
5.14376e-06 -7.04084e-06 -4.00319e-07
-1.01776e-05 -1.64332e-06 -9.09383e-07
-1.01152e-05 1.09185e-05 1.11675e-07
-1.84547e-05 -1.01551e-05 -4.02198e-06
4.95176e-05 -1.15467e-06 3.74627e-05
4.50545e-05 7.15821e-05 -4.10054e-05
-5.6875e-05 -6.13148e-05 -2.14409e-05
1.05285e-07 -1.42134e-05 -1.6163e-06
-1.73466e-05 -5.54004e-07 -2.90079e-06
5.24967e-06 -1.01567e-05 -6.11965e-07
-1.55895e-05 -1.6308e-05 -3.04873e-06
-1.51746e-05 -1.63061e-05 -2.85959e-06
-1.41854e-05 -1.39791e-05 -4.58636e-06
0.000382343 0.000181999 -0.000231458
5.58125e-06 2.46826e-05 9.34763e-06
9.85067e-07 6.32195e-06 2.58928e-06
5.3802e-06 -8.3668e-06 -5.34566e-07
-1.66905e-05 7.61391e-07 -2.68024e-06
9.40596e-06 -1.20396e-05 -4.72914e-07
-2.10586e-05 3.05925e-06 -1.91416e-06
7.57228e-06 1.69951e-05 1.21581e-06
-2.06483e-05 -0.000579825 -0.000827001
-1.47242e-05 -5.7765e-07 -2.64298e-06
0.00128172 -4.04778e-05 -0.000727743
-1.78104e-10 -8.05858e-07 1.13899e-06
-3.12239e-06 -4.57588e-06 -9.95538e-07
-5.30316e-07 -8.15265e-07 -1.68718e-07
-7.13828e-06 2.47471e-06 -7.76861e-07
1.00266e-05 -1.79397e-05 -3.15518e-06
-1.49928e-05 -7.12177e-07 -2.17728e-06
-0.000183796 3.49206e-06 -0.000425703
-1.81746e-05 -5.39705e-07 -2.33468e-06
4.22069e-05 -1.91871e-06 -0.000229262
-1.52756e-05 -5.55769e-06 -4.37538e-06
0.000230734 -0.00100275 -0.000564835
0.000531574 -0.000467023 -0.000180766
-5.16115e-06 -1.32413e-05 -3.64618e-06
-1.97089e-06 -1.55254e-05 -3.94784e-06
-1.2038e-05 -1.02132e-05 -4.25782e-06
5.5829e-06 -5.00355e-06 -5.56949e-07
-2.19427e-05 -1.22031e-05 -4.75274e-06
-0.000131594 -4.937e-05 -2.37073e-05
-9.84276e-06 -1.51698e-05 -5.94099e-06
5.98928e-05 -0.000893886 -0.000235442
-0.000933373 -0.000364423 0.000510415
-0.000376348 4.50148e-05 8.70682e-05
9.37284e-05 -2.39742e-05 3.57716e-05
2.91296e-10 3.67902e-07 -9.15128e-07
-4.8151e-06 -1.60387e-09 1.20154e-05
0.000296337 -0.00346262 0.00221151
-0.000206698 0.0018439 -0.00109543
0.000313816 0.00272395 -0.00157522
5.00954e-05 -1.71194e-05 1.87752e-05
-8.48902e-05 0.000299714 0.000128173
6.41423e-05 -0.000161682 0.000142318
0.000658932 -0.00203277 -0.00197643
3.42969e-07 4.5956e-06 -8.26713e-05
1.09574e-07 -9.3605e-10 5.22689e-07
-1.3543e-05 1.02574e-05 1.47279e-05
4.62503e-05 -1.47724e-06 3.06371e-05
-1.23723e-05 1.205e-05 8.82641e-06
-1.37524e-05 4.01065e-06 3.28844e-06
1.33584e-05 7.42424e-06 1.19162e-05
4.50363e-06 -9.30158e-08 -0.000147571
7.67746e-06 4.65856e-06 -6.98511e-07
1.15866e-05 6.74312e-06 -6.33171e-07
3.78851e-06 1.73162e-05 -8.06806e-07
2.88262e-06 -3.07735e-05 6.73825e-07
-4.69383e-07 -5.05071e-06 -4.95956e-08
-0.00153092 -3.66636e-05 0.00331863
-2.68695e-06 -8.86435e-06 -2.40222e-07
0.000189751 -8.51145e-06 0.00284091
-7.10126e-06 -8.69298e-06 -5.81369e-07
1.90666e-08 1.33795e-06 -5.69705e-05
-3.56286e-05 -1.82889e-05 3.95386e-06
-2.43426e-06 -9.68545e-06 2.78673e-07
-1.20766e-05 -5.72021e-06 9.58625e-07
3.21991e-06 -1.26075e-05 3.385e-07
9.94391e-08 -9.76804e-06 2.12053e-07
1.9083e-06 -1.66218e-05 5.8089e-07
-0.000222198 -0.0002525 -0.000497829
-4.08764e-09 -4.68499e-06 1.90313e-05
-8.17221e-05 -2.42887e-05 3.52849e-06
-1.79507e-05 -3.77016e-06 5.96946e-07
-1.28155e-05 -8.43481e-06 7.63184e-08
3.39507e-06 1.72794e-07 -0.00160225
-1.83197e-05 3.14512e-07 1.80966e-06
2.59604e-06 -2.10789e-05 1.88202e-07
-9.59031e-05 -1.38224e-05 0.000887807
-1.99523e-06 -1.65553e-05 1.9751e-08
6.8348e-05 -4.53443e-06 0.000820773
5.06262e-06 -8.62998e-06 3.90521e-07
0.000111083 -2.38758e-05 5.35202e-05
-0.000257184 -5.09916e-05 8.612e-06
4.85116e-06 1.57014e-05 2.43108e-05
-1.53969e-05 -9.47034e-06 6.47438e-07
-6.54313e-06 -9.17101e-06 1.10703e-07
-1.91378e-05 -1.32923e-05 2.89082e-06
-2.6999e-06 -2.26521e-05 1.73897e-06
7.21771e-05 3.54806e-05 -9.15375e-07
1.33411e-05 -0.000259954 5.29492e-05
-4.26693e-07 -1.21901e-05 8.23384e-07
7.483e-05 -1.8364e-05 3.41008e-05
1.04062e-08 -1.03905e-05 -1.37304e-06
3.93305e-06 -5.08549e-06 -1.6479e-07
-1.47769e-05 -4.05388e-06 4.81285e-07
-5.78781e-06 -5.24017e-06 1.23536e-07
-3.95649e-06 -1.10456e-05 5.33681e-07
6.50722e-07 2.13286e-07 1.64443e-08
2.54705e-06 -6.91515e-06 5.72848e-07
0.00101419 0.000969626 -1.01198e-05
-9.91711e-06 1.34443e-05 2.96841e-05
2.01239e-09 1.76182e-05 -2.94661e-05
-9.47619e-06 8.74551e-09 -9.05311e-06
3.94096e-06 -1.31344e-07 1.0713e-07
-1.07726e-05 1.6543e-06 2.81441e-07
-5.39213e-06 -1.09112e-05 -2.06364e-07
-1.30019e-05 8.48566e-06 1.74274e-06
-2.04753e-05 1.26604e-05 1.15537e-06
-3.57355e-05 1.96372e-05 1.78209e-06
2.39728e-06 -1.36367e-05 -1.04452e-06
-0.000210282 -0.00247384 0.00154641
3.53943e-09 4.6278e-06 -1.36509e-05
1.6834e-07 6.58009e-09 -1.00946e-05
-1.70854e-05 -0.000374673 -0.000148388
6.24139e-06 -0.000129251 -5.03333e-05
2.46993e-06 -0.000164037 -7.52909e-05
6.60604e-05 -0.000109454 -5.60751e-05
4.00828e-05 -0.000101694 -4.03136e-05
-0.000176878 -0.000255558 0.000501171
-0.0011123 0.000888792 -0.000917417
0.000206107 0.000230637 -0.000310983
-0.00125408 0.000597184 0.00093765
-7.66242e-06 -0.000116111 -4.3932e-05
1.07084e-05 1.5912e-08 -7.05911e-05
2.48678e-05 -5.71645e-05 -0.00010099
8.70039e-06 -4.95465e-06 4.68396e-06
0.000540582 0.00200663 -0.000858807
-0.00141201 -0.00356352 0.00188211
-5.39645e-05 1.45468e-07 -8.63131e-06
4.27592e-06 -2.12107e-08 -1.06527e-05
-0.000507684 -0.000588629 -0.000688502
0.000228904 -0.000455677 -8.70927e-05
-1.61814e-05 5.32069e-06 -8.3167e-06
3.58734e-06 7.74923e-06 6.62102e-06
3.39186e-05 -8.58204e-06 3.47336e-05
-1.01959e-08 2.58282e-09 1.60226e-05
-2.76519e-08 1.22661e-05 2.69273e-05
-5.81069e-06 -1.47392e-05 4.45883e-06
-1.77221e-05 -4.61577e-06 3.68979e-06
-0.000521224 9.36958e-05 -0.000406456
0.000567974 0.00101175 -0.00024907
-0.000252761 -1.17264e-05 5.63028e-05
-3.45663e-05 0.000954785 -0.000199148
-2.08353e-05 1.68359e-07 -5.95548e-05
0.000640526 2.23572e-05 -0.000109759
-9.20987e-06 1.08427e-06 -1.21543e-05
5.86226e-09 -2.61371e-06 -1.07478e-05
-0.000706384 -0.000404019 -0.000989194
-3.20778e-06 1.32365e-05 -9.54088e-07
-1.70276e-05 -3.34719e-06 3.40273e-06
-9.01686e-06 -9.98896e-06 1.91471e-06
-6.34332e-05 5.36513e-05 0.000798512
-8.63232e-06 -9.40538e-06 1.10935e-06
7.78097e-06 1.01207e-05 -9.55394e-07
-1.49367e-05 -3.32613e-06 1.75422e-06
1.06778e-08 -8.9854e-06 -1.85672e-05
-1.02467e-05 -1.06277e-05 2.29879e-06
-8.66622e-06 -5.88487e-06 2.18426e-06
-3.35542e-06 -1.7982e-05 1.61461e-06
-6.50879e-06 -1.50134e-05 1.64517e-06
7.03277e-06 1.4988e-05 -1.56811e-06
-1.47004e-05 -1.12276e-05 3.11664e-06
0.00113089 -0.000300601 -0.000380631
-9.77922e-10 -2.41241e-06 -3.02622e-05
-0.000652358 0.000146309 5.51504e-06
-1.35993e-05 -1.40772e-05 3.08406e-06
-1.46378e-05 -6.84206e-06 3.46453e-06
2.51811e-06 -9.04102e-06 5.62044e-07
-1.19116e-05 -4.88874e-06 9.5843e-07
-2.19374e-05 -1.69361e-05 1.89142e-06
-2.7699e-06 0.000170438 0.000586565
-9.43014e-06 -6.33294e-06 1.79778e-06
2.04614e-06 -1.13316e-05 7.00262e-06
-9.6491e-09 -1.09298e-06 -2.01565e-05
3.18856e-05 1.56628e-09 3.03075e-05
-4.18923e-06 -1.25166e-05 2.31824e-06
-1.27527e-05 -1.14659e-05 3.93692e-06
-6.79014e-06 -7.32245e-06 2.9035e-06
-9.28796e-07 -1.27936e-05 2.91099e-06
-8.9184e-06 -1.36148e-05 3.51192e-06
-1.10424e-05 -1.44154e-05 4.14814e-06
-0.000320721 -0.000275271 0.000136786
-3.02888e-05 2.58541e-05 3.44203e-05
-8.88473e-06 1.64727e-08 -2.53372e-05
-5.04987e-06 -1.15673e-05 2.52121e-06
-7.19936e-06 -1.08511e-05 2.8172e-06
-8.38718e-06 -9.53013e-06 3.54457e-06
2.70084e-07 -1.10617e-05 5.26183e-07
-1.18465e-05 -9.93952e-06 1.3418e-06
-5.1945e-06 -9.82751e-06 7.23905e-07
-3.60826e-06 1.23951e-05 -5.91232e-07
1.06579e-08 -1.51853e-05 -2.86517e-05
-1.85434e-06 1.94397e-08 -1.57397e-05
-1.47913e-05 -0.000105087 1.92898e-05
-1.02638e-05 -4.14037e-05 7.36538e-06
3.12586e-05 0.000167188 -2.63721e-05
-0.000115207 0.000821049 6.73066e-06
-0.000251092 -0.000172776 1.21646e-06
0.000180553 -4.86677e-05 9.9523e-05
9.33289e-06 1.39408e-05 9.27063e-06
-9.85084e-05 7.48526e-07 0.000145845
8.05517e-05 -0.000104956 -8.03645e-05
0.000331629 0.000654058 0.000629969
9.94419e-06 -1.98254e-05 -2.21029e-06
-5.2354e-06 -4.43806e-06 7.36248e-06
-4.95489e-06 -1.02968e-05 8.15396e-06
4.2748e-05 0.00041683 0.0022701
-4.08391e-05 1.0489e-06 -4.0818e-07
-5.1809e-06 -2.25454e-06 4.22359e-06
-5.67805e-06 -1.50455e-08 3.27004e-05
-0.00204143 0.00164615 -0.00268103
0.00163 -0.000762248 0.00364623
0.000660515 -0.00038194 0.00102828
1.76738e-05 -7.15043e-06 3.07689e-05
5.2706e-07 4.791e-06 0.000168242
-4.66885e-06 -9.09338e-05 0.00012273
-2.7204e-05 0.000346709 0.000541809
4.99804e-05 -0.000139963 2.42189e-05
2.90546e-06 -2.60533e-05 5.05004e-06
-5.34072e-05 0.000124898 -1.6359e-05
-8.45936e-07 1.01012e-05 -0.000450733
2.06644e-05 9.50938e-07 -0.000581651
-0.000916033 -0.000474882 0.000309
1.54956e-05 -0.00047681 4.15565e-05
-2.07993e-06 3.79655e-06 4.17056e-08
-2.24555e-06 -9.59846e-08 7.72266e-06
-5.00872e-07 4.75109e-06 -4.17222e-07
8.31504e-05 2.80732e-05 -0.000975503
7.06681e-06 8.76733e-07 -5.29509e-07
2.6283e-06 1.61524e-06 -2.33562e-07
8.85773e-06 -2.78362e-07 -1.34823e-06
2.75649e-07 -2.86002e-05 0.000198061
-4.276e-06 2.74219e-06 1.67131e-07
4.9842e-06 -1.21861e-06 -8.36674e-07
-2.42282e-06 5.41984e-06 -3.52162e-07
7.36922e-06 2.30967e-06 -6.87885e-07
7.15589e-06 -6.19015e-07 -1.428e-07
5.84543e-06 -1.08262e-06 -7.94754e-07
-2.06341e-06 6.75686e-07 2.54153e-08
2.5288e-06 -1.19488e-06 -1.64177e-07
-1.96464e-06 -1.04477e-07 3.95066e-07
-4.44555e-06 6.75261e-07 2.87406e-07
3.6548e-06 -6.81815e-06 1.74079e-07
-9.40353e-06 -1.00135e-05 8.83126e-07
4.89762e-06 -3.27984e-06 -5.39586e-07
-2.77673e-08 -1.37354e-06 -1.55289e-05
-1.9445e-06 3.54514e-07 0.00010254
5.27129e-06 4.37633e-06 -1.71366e-06
2.74877e-06 3.16278e-06 -9.85362e-07
-2.95819e-07 -9.02394e-07 2.40077e-07
2.65632e-06 -3.26667e-07 -1.89647e-07
1.34735e-06 2.45111e-07 -1.5902e-07
-7.17758e-08 -1.53957e-06 2.91016e-07
3.27361e-06 1.53831e-06 -8.70257e-07
-1.7373e-08 9.84067e-06 3.70812e-06
7.27934e-06 -1.08665e-07 2.56192e-05
2.27181e-06 4.55297e-06 -1.41515e-06
-3.10904e-06 2.99634e-06 -3.23333e-07
3.48283e-07 -3.74922e-06 6.18004e-07
1.13706e-06 1.35858e-05 -2.70855e-06
-1.30886e-06 1.21919e-05 -1.54242e-06
-2.05412e-06 1.0037e-05 -1.20495e-06
1.74884e-05 -3.93806e-05 8.91755e-05
1.60427e-07 4.2656e-06 0.000130452
3.12815e-06 1.45311e-08 9.61956e-06
-1.74078e-05 0.000811369 0.000586777
-9.26107e-05 -0.00168867 0.0008223
7.51905e-05 -1.49718e-05 9.29102e-07
-1.93539e-05 2.4537e-05 -3.42805e-05
0.00279501 -0.00402911 -0.00285841
-5.35626e-05 -0.000253099 1.15909e-05
3.78795e-05 -3.08611e-05 -6.92447e-05
-0.000137699 0.000163496 9.76505e-05
-2.9611e-06 2.08212e-05 2.27163e-05
-7.53298e-06 1.23036e-05 5.33799e-06
0.000689071 -0.00231449 0.00104992
-1.3379e-06 3.30273e-09 -1.57267e-05
2.18061e-05 -1.40603e-06 -1.33252e-06
4.91664e-05 -0.000381228 -3.06969e-05
-7.28413e-05 0.000406581 -1.42481e-05
-3.14155e-06 8.4538e-06 -7.1403e-07
1.72759e-06 -5.67793e-06 5.46501e-07
1.70309e-07 7.40463e-07 -8.87226e-08
4.84687e-05 -0.000431849 -0.000982263
1.35977e-06 2.39443e-06 -2.86726e-07
4.76812e-05 -0.000204064 8.36616e-06
6.41042e-06 2.03619e-06 -6.20811e-07
2.00446e-07 3.50982e-06 -2.96467e-07
9.5254e-07 3.73859e-06 -3.17067e-07
5.54043e-06 1.30109e-06 -6.94559e-07
1.45849e-07 -7.51443e-05 0.000343637
-7.03457e-07 7.60166e-06 -6.163e-07
4.97169e-06 3.48523e-07 -7.44282e-07
9.79495e-05 -1.97315e-05 -0.000591181
2.92657e-06 1.84107e-06 -3.13541e-07
4.47541e-08 -1.98732e-06 -1.74697e-05
0.000306046 3.7176e-05 -0.000628656
-4.31849e-07 5.15347e-06 -3.14043e-07
1.65811e-06 2.69432e-06 -2.22126e-07
3.81669e-06 2.7992e-06 -5.11267e-07
1.53856e-07 -8.76198e-08 -5.1687e-09
2.63431e-06 2.4181e-06 -4.36831e-07
1.13425e-06 3.8241e-06 -4.67116e-07
-2.39071e-06 3.67472e-06 -6.55992e-09
-2.83168e-07 -9.22909e-06 3.39899e-07
-3.03112e-07 4.97268e-06 -1.71295e-07
2.80338e-06 2.10693e-06 -3.41167e-07
1.00948e-05 1.52552e-06 -3.50221e-06
-3.02049e-05 -2.98659e-07 -2.68467e-05
-5.84063e-08 -2.79211e-06 5.35845e-07
3.31937e-06 2.69846e-06 -6.75847e-07
-1.47931e-06 -1.23112e-06 3.67701e-07
-1.04187e-06 -3.48938e-06 4.93341e-07
1.53188e-06 2.47094e-06 -3.8336e-07
3.23439e-06 2.70179e-06 -3.00552e-07
7.67669e-07 3.46475e-05 0.000469094
6.90264e-05 5.92709e-07 0.000469037
1.62695e-06 3.47532e-06 -6.43416e-07
-1.46867e-06 3.20815e-06 -3.09673e-07
9.71045e-07 1.12707e-06 -2.53519e-07
7.49737e-07 7.72408e-06 -9.28859e-07
4.87654e-06 3.01305e-06 -5.40298e-07
3.43503e-06 4.43231e-06 -4.52115e-07
5.35577e-05 -0.000193139 6.55337e-05
-9.05098e-06 -5.87604e-07 1.41567e-06
-6.69916e-07 -4.53464e-06 2.4127e-06
-2.69377e-06 -1.21625e-05 2.46705e-06
-0.000682096 -0.000655914 0.000547902
-0.000131517 0.000249323 0.0026959
-7.73831e-06 3.73731e-05 5.11317e-06
-4.16109e-06 6.68017e-06 2.70236e-06
-0.000136972 -6.16901e-05 -3.6198e-05
-0.000515707 3.35117e-05 0.000145418
-1.965e-05 -1.72939e-06 0.000628068
-4.59547e-05 0.000970236 -5.09674e-05
2.36188e-05 -1.33896e-06 4.89425e-07
-2.02198e-06 1.32113e-05 4.57587e-07
-5.84528e-07 -1.38485e-06 3.72343e-08
9.8965e-08 -4.01914e-06 7.05982e-08
-5.37062e-07 -1.67042e-06 5.16269e-08
-0.000324886 0.0023899 8.28984e-06
-2.20483e-06 1.35018e-06 1.44301e-07
2.31948e-06 -1.6017e-06 2.00983e-08
-1.94772e-06 -1.90144e-06 1.99115e-07
-2.44876e-07 -2.43485e-06 1.51297e-07
-2.02394e-06 -1.11832e-06 1.66637e-07
1.16952e-07 -1.6388e-06 7.05247e-08
8.81265e-07 -1.11817e-07 -2.62585e-08
0.000389736 6.94058e-05 -0.000659
-1.63696e-06 -9.07681e-07 1.15991e-07
-2.94336e-07 -3.00664e-06 1.52114e-07
-1.50532e-06 -5.30013e-07 9.44265e-08
-1.45473e-06 -2.16896e-07 2.80602e-07
-8.44368e-08 -8.68142e-08 6.55443e-10
-1.35317e-06 -1.07987e-05 3.86616e-07
-3.959e-06 1.99917e-06 3.31686e-07
2.36287e-05 -1.96366e-05 -0.000402038
-3.84626e-06 1.64764e-06 1.08281e-07
-2.99484e-06 -5.44111e-06 2.76883e-07
-2.48472e-06 1.65579e-06 2.42311e-08
-1.39592e-06 -3.81054e-09 7.59883e-08
-1.68304e-06 -2.21629e-06 3.11207e-07
-1.00343e-07 -2.80461e-06 2.3435e-07
-3.03213e-07 -1.32307e-06 1.33587e-07
6.94835e-05 -0.000424544 0.000606284
-2.27407e-05 -2.9229e-05 -0.000542184
-1.10751e-06 -1.2011e-06 1.12593e-07
-7.40596e-07 -1.74162e-06 1.7128e-07
1.09379e-06 -8.16455e-06 5.47736e-07
7.89712e-05 -5.61721e-05 -0.000800568
-6.7815e-07 -1.52673e-06 1.14082e-07
-5.82119e-08 -2.65032e-06 1.38387e-07
-2.11191e-06 5.24145e-07 1.39898e-07
9.83255e-06 2.0424e-07 -6.8378e-06
-1.3922e-06 -2.55275e-06 8.60016e-08
-5.06314e-07 -3.11066e-06 1.29769e-07
6.1161e-08 -2.2653e-06 7.66914e-08
1.9319e-06 0.000204244 9.24084e-05
1.63542e-05 1.38269e-05 1.79024e-06
1.71986e-05 6.91001e-05 -1.12938e-05
-2.94575e-05 -0.000122048 1.44843e-05
8.0508e-05 -1.00479e-06 -0.000305137
0.000423072 -6.58734e-05 -0.000105116
-0.000730886 0.000284598 0.00216973
0.00146011 -0.000275686 0.00678433
-0.00392308 -0.000950439 -0.00383361
1.8241e-06 2.27506e-05 0
1.10014e-05 -1.83348e-05 0
7.32428e-06 2.41934e-05 0
6.12507e-06 4.15403e-05 0
0.000367298 -0.00398166 0
0.000106025 8.46469e-05 0
2.69451e-05 3.22916e-05 0
4.36056e-05 8.79108e-05 0
-5.8429e-05 0.000631869 0
2.72653e-05 7.69944e-05 0
-0.00393045 -0.0021658 0
4.61812e-05 5.96869e-05 0
-5.24081e-05 0.000102941 0
-2.93302e-05 2.43943e-05 0
3.31614e-06 5.80447e-06 0
2.33902e-05 3.35377e-06 0
-0.000103083 -2.76487e-05 0
7.95719e-05 -6.67888e-06 0
9.26296e-05 0.000279951 0
7.05198e-06 0.000290431 0
-0.000463533 -9.54593e-05 0
-5.05782e-06 1.39501e-05 0
1.09743e-05 3.25358e-06 0
1.88945e-05 4.9671e-06 0
1.12975e-06 -5.88772e-06 0
1.85606e-05 2.72198e-05 0
0.000526937 -0.0018897 0
5.03613e-05 8.79614e-05 0
5.14132e-05 2.93913e-05 0
-1.57581e-06 9.84429e-06 0
8.38168e-05 8.61299e-05 0
4.96282e-05 8.48796e-05 0
5.28362e-05 0.000104228 0
3.8846e-05 5.22058e-05 0
2.52695e-05 0.000213668 0
-7.49533e-05 -8.92104e-05 0
3.67056e-07 8.39424e-07 0
1.55385e-05 1.09334e-05 0
-0.000228444 -1.87315e-05 0
1.81748e-05 1.27521e-05 0
5.77463e-05 1.41845e-05 0
-7.21188e-09 -1.25213e-09 0
1.08009e-05 9.93634e-06 0
1.30025e-05 -2.98714e-05 0
4.64756e-05 2.0268e-05 0
5.79985e-05 7.34484e-05 0
7.73596e-05 7.16545e-05 0
4.11027e-05 6.0972e-05 0
-1.86655e-06 6.85714e-05 0
5.97597e-05 6.02541e-05 0
6.26135e-05 2.63617e-05 0
-0.00012174 3.28175e-05 0
-1.51029e-05 8.1328e-06 0
2.05366e-05 0.000149673 0
-0.00210351 -0.000805155 0
-0.00037648 -0.00106068 0
0.00019906 3.56083e-05 0
1.29927e-05 2.54323e-05 0
1.32538e-05 1.72033e-05 0
3.35688e-05 7.9985e-05 0
4.1137e-05 4.71887e-05 0
4.85269e-05 6.15845e-05 0
-0.00127979 -0.00301748 0
-1.07484e-05 7.1106e-05 0
2.60927e-05 1.56756e-05 0
3.04467e-05 2.95432e-05 0
9.96021e-06 6.85891e-05 0
-4.2103e-05 2.4007e-05 0
-2.82287e-07 -7.82482e-08 0
0.000130456 5.93443e-05 0
4.14865e-05 3.84621e-05 0
3.24657e-05 -2.89028e-05 0
-6.67121e-07 7.78364e-05 0
3.79931e-05 8.2686e-05 0
4.18912e-05 7.77998e-05 0
5.91843e-05 7.06858e-05 0
1.16952e-05 3.11972e-05 0
3.19634e-05 5.35749e-05 0
1.65661e-05 2.97079e-05 0
-2.50936e-05 7.70384e-06 0
-0.000260253 -2.12156e-05 0
-3.9607e-07 3.29049e-07 0
-1.2525e-05 -1.55383e-05 0
3.5018e-06 -1.59147e-05 0
-8.45756e-06 6.47705e-05 0
8.59235e-05 5.67524e-05 0
4.62212e-05 5.27478e-05 0
3.16964e-05 5.2549e-05 0
-3.38443e-05 6.59276e-05 0
-1.25599e-05 2.6085e-05 0
1.66545e-05 5.62073e-06 0
-0.000190084 -5.92263e-05 0
0.000107767 0.000104544 0
-1.51149e-05 -1.65069e-06 0
-6.65816e-06 3.35846e-06 0
-6.95997e-06 -6.35485e-05 0
5.31599e-05 4.94125e-05 0
6.90724e-05 3.36958e-05 0
5.55831e-05 -6.28447e-06 0
6.58721e-07 -2.77246e-05 0
6.90052e-05 -1.81582e-06 0
-1.9582e-05 -5.51365e-06 0
7.6414e-06 -5.70045e-05 0
9.62272e-06 -8.42889e-08 0
-8.09894e-07 3.51278e-08 0
1.45907e-05 1.25359e-06 0
9.41917e-06 -4.36514e-07 0
8.03257e-06 -4.98353e-05 0
7.41951e-05 4.36681e-05 0
-3.49756e-06 -1.48135e-05 0
2.26025e-05 -4.71995e-05 0
-5.48283e-05 -2.45832e-05 0
1.8421e-05 -4.19537e-05 0
0.000470337 -0.000261558 0
1.46828e-05 3.37438e-08 0
1.32844e-05 -5.8411e-06 0
1.87854e-06 1.918e-06 0
9.49168e-07 -1.27808e-05 0
-3.29163e-06 -6.96988e-05 0
-4.38125e-06 8.01457e-05 0
-8.66918e-10 2.63617e-10 0
8.00351e-06 7.70604e-06 0
1.71062e-05 4.30557e-05 0