<?xml version="1.0"?>
<VTKFile type="UnstructuredGrid" version="0.1" byte_order="LittleEndian" compressor="vtkZLibDataCompressor">
 <UnstructuredGrid GhostLevel="0">
  <Piece NumberOfPoints="1502" NumberOfCells="1502">
   <PointData>
    <DataArray type="Float64" Name="radius"/>
0.002321
0.002343
0.0022
0.002355
0.002353
0.002169
0.002316
0.002146
0.00229
0.002226
0.002296
0.002148
0.002294
0.002145
0.00231
0.002248
0.002297
0.00229
0.002164
0.002214
0.002307
0.002295
0.002261
0.002195
0.002321
0.002216
0.002276
0.002324
0.002344
0.002307
0.002155
0.002313
0.002265
0.002213
0.002208
0.002273
0.002293
0.002156
0.002172
0.002362
0.002161
0.002312
0.002156
0.002318
0.002178
0.002168
0.002261
0.002277
0.002228
0.002165
0.002231
0.00235
0.002213
0.002163
0.002192
0.002167
0.002267
0.002217
0.002147
0.002302
0.002261
0.00218
0.00222
0.002156
0.002247
0.002206
0.002321
0.002223
0.002216
0.002261
0.002184
0.002189
0.002188
0.002236
0.002234
0.002358
0.002196
0.002196
0.002187
0.002209
0.002157
0.002144
0.002247
0.002241
0.002255
0.002278
0.00222
0.002337
0.00216
0.00229
0.002162
0.002313
0.002338
0.002182
0.00225
0.002275
0.002319
0.002191
0.002248
0.002298
0.002151
0.002154
0.002322
0.002171
0.002356
0.00224
0.002156
0.002225
0.002151
0.002231
0.002203
0.002359
0.002221
0.002214
0.002149
0.002233
0.002231
0.002295
0.002295
0.002166
0.002145
0.002288
0.002241
0.00233
0.00218
0.002165
0.002224
0.002203
0.002323
0.002215
0.002341
0.002196
0.002233
0.002178
0.002272
0.002295
0.002153
0.002285
0.002299
0.002211
0.002313
0.002197
0.002237
0.002334
0.002281
0.00229
0.002294
0.002188
0.002215
0.002139
0.002344
0.002233
0.00221
0.002146
0.002244
0.002274
0.002192
0.00231
0.002158
0.00226
0.002283
0.00235
0.002191
0.002239
0.002311
0.002231
0.002195
0.002259
0.002209
0.002283
0.00226
0.0023
0.002187
0.002152
0.00222
0.002311
0.002181
0.002159
0.002331
0.002289
0.002216
0.002196
0.002192
0.002218
0.002291
0.002142
0.002198
0.002234
0.002311
0.002307
0.002315
0.002289
0.00231
0.00236
0.00227
0.002229
0.002315
0.002158
0.00229
0.002249
0.002329
0.002294
0.002335
0.002332
0.002256
0.002189
0.002267
0.002269
0.002156
0.002302
0.002311
0.002268
0.002332
0.002185
0.002145
0.002149
0.002165
0.00218
0.002201
0.00225
0.002165
0.002334
0.002265
0.002184
0.002161
0.002277
0.002347
0.002152
0.002359
0.002253
0.002168
0.002205
0.002243
0.002327
0.002216
0.002177
0.00234
0.002259
0.002202
0.002309
0.002178
0.002255
0.002185
0.002243
0.002305
0.002179
0.002168
0.002154
0.002237
0.002182
0.00224
0.002212
0.002205
0.002309
0.002156
0.002258
0.002214
0.00214
0.002273
0.002297
0.002293
0.002151
0.002274
0.002166
0.002338
0.002149
0.002317
0.002167
0.002164
0.002285
0.002304
0.002356
0.00222
0.002272
0.002184
0.002184
0.002189
0.002172
0.002204
0.002158
0.002163
0.002273
0.002294
0.002285
0.00218
0.002247
0.002199
0.002234
0.002151
0.002294
0.002158
0.002285
0.002162
0.002168
0.002175
0.002209
0.002338
0.002179
0.002343
0.002208
0.00236
0.002227
0.002228
0.002277
0.002174
0.002216
0.002257
0.002213
0.002233
0.002305
0.002166
0.002209
0.002348
0.002309
0.002305
0.002242
0.002323
0.002287
0.002296
0.002259
0.00232
0.002256
0.002227
0.002195
0.002285
0.002345
0.002237
0.002189
0.002289
0.002232
0.002209
0.002329
0.002351
0.002333
0.002362
0.002274
0.002143
0.002301
0.002303
0.002353
0.002188
0.002282
0.0023
0.002224
0.002342
0.00232
0.002267
0.002193
0.002319
0.002258
0.00236
0.002142
0.002258
0.002278
0.002178
0.002276
0.00223
0.00229
0.002213
0.002204
0.00223
0.002269
0.002253
0.002362
0.002215
0.002231
0.002207
0.002294
0.002345
0.002223
0.002188
0.002245
0.002177
0.002348
0.00216
0.002339
0.002263
0.002178
0.002252
0.00216
0.00225
0.00232
0.002168
0.002344
0.002215
0.002302
0.002227
0.00221
0.002261
0.002219
0.002248
0.002211
0.002352
0.002287
0.002298
0.002286
0.002239
0.00233
0.002168
0.00227
0.002251
0.002217
0.002147
0.002288
0.002219
0.002142
0.002284
0.002165
0.002212
0.002165
0.002347
0.002215
0.00226
0.00215
0.002181
0.002335
0.002345
0.00226
0.002326
0.002264
0.002251
0.002169
0.002315
0.002168
0.002205
0.002202
0.002272
0.002261
0.002143
0.002255
0.002324
0.002271
0.002288
0.002154
0.002348
0.002308
0.00236
0.00224
0.002336
0.002272
0.002239
0.002309
0.002289
0.002229
0.002201
0.002225
0.002325
0.002211
0.002336
0.002289
0.002164
0.002193
0.00226
0.002227
0.002351
0.002325
0.002156
0.002205
0.002159
0.002331
0.002362
0.002212
0.002153
0.002236
0.002276
0.002347
0.00234
0.002275
0.002183
0.002355
0.0023
0.002263
0.002294
0.002302
0.002224
0.002234
0.002314
0.002225
0.002149
0.002141
0.002288
0.002266
0.002272
0.002172
0.002325
0.002332
0.002162
0.002263
0.002328
0.002251
0.002252
0.002156
0.002176
0.002237
0.002239
0.002262
0.002191
0.002229
0.002205
0.002228
0.002169
0.002234
0.002233
0.002296
0.002154
0.002187
0.00217
0.002169
0.002349
0.002222
0.002153
0.002143
0.002354
0.002291
0.002262
0.002189
0.00233
0.002274
0.002271
0.002237
0.002257
0.002213
0.002228
0.002262
0.002192
0.002348
0.002177
0.002138
0.002278
0.002202
0.002309
0.002283
0.002216
0.002182
0.002294
0.002257
0.002341
0.002289
0.00215
0.002292
0.002301
0.002164
0.002202
0.002179
0.002347
0.002172
0.002167
0.002276
0.002315
0.002266
0.002282
0.002356
0.0022
0.002353
0.002176
0.002331
0.002301
0.00232
0.002158
0.002151
0.002257
0.002315
0.002307
0.002198
0.002297
0.002329
0.002195
0.002269
0.002269
0.00218
0.002323
0.002209
0.002266
0.002245
0.002145
0.002239
0.002219
0.002334
0.002357
0.002231
0.002308
0.002313
0.002318
0.00225
0.002154
0.002181
0.002146
0.002263
0.002254
0.002354
0.002348
0.002227
0.002308
0.002258
0.002149
0.002257
0.002235
0.002141
0.002245
0.002286
0.002182
0.002336
0.002178
0.002328
0.002335
0.002321
0.002213
0.002295
0.002352
0.002207
0.002158
0.002343
0.002144
0.002166
0.002217
0.002236
0.002158
0.002327
0.002248
0.002258
0.002241
0.002174
0.002235
0.002178
0.002211
0.002358
0.002143
0.002229
0.002221
0.002353
0.00233
0.002358
0.002292
0.00234
0.002215
0.002322
0.002319
0.002249
0.002325
0.002277
0.002339
0.00233
0.002229
0.002172
0.002195
0.002229
0.002175
0.00221
0.002304
0.002324
0.002255
0.00232
0.002291
0.002224
0.002307
0.002256
0.002273
0.002347
0.002259
0.002211
0.002306
0.002325
0.002338
0.002216
0.002305
0.002143
0.002313
0.002338
0.002188
0.002346
0.002174
0.00225
0.002148
0.002213
0.002291
0.002349
0.002318
0.002309
0.002316
0.002208
0.002203
0.002276
0.002324
0.002245
0.002318
0.002327
0.002266
0.002308
0.002353
0.0022
0.002354
0.002255
0.002336
0.002171
0.002238
0.002206
0.002317
0.002191
0.002357
0.002331
0.002359
0.0023
0.002337
0.002361
0.00234
0.002162
0.002265
0.002287
0.002354
0.002294
0.002338
0.002163
0.002284
0.002201
0.002308
0.002163
0.002149
0.002279
0.002273
0.002145
0.002162
0.002262
0.002334
0.002241
0.002239
0.002304
0.002234
0.00222
0.002324
0.002284
0.002335
0.002178
0.002268
0.002332
0.002257
0.00226
0.002238
0.002279
0.002215
0.002352
0.002312
0.002204
0.002314
0.00221
0.002266
0.002295
0.002238
0.002289
0.002306
0.002167
0.00217
0.002323
0.002248
0.002259
0.002146
0.00222
0.002344
0.002339
0.002269
0.002256
0.002214
0.002268
0.00215
0.002272
0.002277
0.002168
0.002191
0.002331
0.002284
0.002286
0.002142
0.002165
0.002203
0.002234
0.00234
0.002349
0.002352
0.002346
0.002271
0.002317
0.002317
0.002163
0.002345
0.002284
0.002357
0.002204
0.002208
0.002228
0.002161
0.002172
0.002261
0.002341
0.002318
0.002251
0.002267
0.002254
0.002294
0.002203
0.002156
0.002304
0.002321
0.002322
0.002339
0.002274
0.002224
0.002212
0.002324
0.002335
0.002303
0.002358
0.002173
0.002339
0.002229
0.002334
0.002144
0.002186
0.002329
0.002232
0.002195
0.002195
0.002228
0.002269
0.002187
0.002304
0.00229
0.002182
0.002174
0.00231
0.002269
0.002258
0.002308
0.002179
0.002312
0.002275
0.002255
0.002223
0.002327
0.002321
0.002157
0.002233
0.002346
0.002331
0.002252
0.002294
0.002244
0.0022
0.002335
0.002305
0.002242
0.002189
0.002337
0.002298
0.002169
0.002283
0.002141
0.002256
0.00227
0.002234
0.002353
0.002337
0.002321
0.002159
0.002269
0.002235
0.002192
0.002156
0.002325
0.00226
0.002319
0.002317
0.002285
0.002306
0.002195
0.002321
0.002144
0.002255
0.002296
0.002308
0.002281
0.002314
0.002269
0.002143
0.002214
0.002227
0.002287
0.002177
0.002198
0.002298
0.002312
0.002151
0.002311
0.002231
0.002224
0.002213
0.002328
0.002323
0.002346
0.002355
0.002283
0.002343
0.002244
0.002286
0.002236
0.002274
0.00226
0.002325
0.002334
0.00234
0.002244
0.002231
0.002167
0.002197
0.00224
0.002228
0.002313
0.002223
0.002191
0.00234
0.002343
0.0022
0.002353
0.002316
0.002146
0.002296
0.002148
0.002294
0.00231
0.002248
0.002214
0.002307
0.002261
0.002195
0.002321
0.002216
0.002324
0.002344
0.002307
0.002213
0.002156
0.002172
0.002156
0.002178
0.002168
0.002228
0.002231
0.00235
0.002213
0.002167
0.002267
0.002147
0.002302
0.002261
0.002247
0.002206
0.002223
0.002216
0.002261
0.002189
0.002188
0.002234
0.002358
0.002196
0.002209
0.002157
0.002144
0.002241
0.002255
0.002337
0.00216
0.002162
0.002338
0.002182
0.002275
0.002319
0.002191
0.002298
0.002322
0.002356
0.002225
0.002231
0.002203
0.002359
0.002221
0.002149
0.002233
0.002295
0.002166
0.002241
0.00233
0.00218
0.002165
0.002224
0.002203
0.002215
0.002233
0.002178
0.002272
0.002295
0.002299
0.002313
0.002237
0.002334
0.00229
0.002294
0.002215
0.002244
0.002274
0.002192
0.00231
0.00226
0.002283
0.00235
0.002191
0.002311
0.002231
0.002259
0.002283
0.00222
0.002181
0.002159
0.002331
0.002289
0.002192
0.002291
0.002142
0.002198
0.002311
0.002307
0.002315
0.00231
0.00236
0.00227
0.002229
0.002315
0.002158
0.00229
0.002329
0.002294
0.002335
0.002332
0.002267
0.002156
0.002302
0.002311
0.002268
0.002145
0.002149
0.002165
0.00218
0.002201
0.00225
0.002165
0.002184
0.002277
0.002152
0.002359
0.002253
0.002205
0.002243
0.002327
0.002216
0.002177
0.00234
0.002178
0.002305
0.002168
0.002237
0.002182
0.00224
0.002212
0.002309
0.002156
0.002258
0.00214
0.002297
0.002293
0.002151
0.002166
0.002338
0.002149
0.002167
0.002285
0.002304
0.002356
0.00222
0.002184
0.002172
0.002158
0.002273
0.002294
0.002285
0.002247
0.002199
0.002151
0.002294
0.002285
0.002162
0.002168
0.002175
0.002338
0.002179
0.002208
0.00236
0.002228
0.002277
0.002174
0.002257
0.002233
0.002166
0.002309
0.002287
0.002259
0.00232
0.002227
0.002285
0.002345
0.002232
0.002209
0.002351
0.002333
0.002362
0.002274
0.002143
0.002301
0.002303
0.002188
0.002282
0.002224
0.002258
0.00223
0.00229
0.002213
0.00223
0.002269
0.002253
0.002215
0.002231
0.002207
0.002294
0.002345
0.002223
0.002188
0.002245
0.002348
0.00216
0.002339
0.002263
0.002178
0.002252
0.002344
0.002302
0.002227
0.00221
0.002261
0.002219
0.002211
0.002287
0.002286
0.002239
0.002168
0.002147
0.002288
0.002142
0.002165
0.002347
0.00226
0.002181
0.002345
0.002326
0.002272
0.002255
0.002324
0.002154
0.002348
0.002308
0.00236
0.00224
0.002336
0.002272
0.002239
0.002309
0.002289
0.002229
0.002336
0.00226
0.002351
0.002325
0.002159
0.002331
0.002362
0.002153
0.002236
0.002276
0.002275
0.002183
0.002263
0.002302
0.002224
0.002234
0.002225
0.002149
0.002288
0.002172
0.002325
0.002263
0.002328
0.002252
0.002156
0.002176
0.002237
0.002239
0.002191
0.002229
0.002205
0.002228
0.002169
0.002234
0.002154
0.002187
0.00217
0.002169
0.002349
0.002222
0.002153
0.002354
0.002262
0.002189
0.00233
0.002274
0.002271
0.002237
0.002257
0.002213
0.002228
0.002192
0.002138
0.002278
0.002309
0.002182
0.002294
0.002257
0.002341
0.002289
0.00215
0.002301
0.002164
0.002202
0.002179
0.002347
0.002167
0.002315
0.002356
0.0022
0.002176
0.002331
0.002301
0.00232
0.002151
0.002315
0.002307
0.002198
0.002329
0.002195
0.002269
0.00218
0.002209
0.002266
0.002245
0.002145
0.002239
0.002219
0.002334
0.002357
0.002231
0.002313
0.00225
0.002154
0.002181
0.002263
0.002254
0.002354
0.002258
0.002149
0.002286
0.002182
0.002336
0.002178
0.002328
0.002321
0.002213
0.002295
0.002352
0.002207
0.002158
0.002144
0.002217
0.002236
0.002158
0.002258
0.002235
0.002211
0.002358
0.002143
0.002229
0.002353
0.002358
0.002215
0.002322
0.002319
0.002249
0.002325
0.002277
0.002339
0.00233
0.002229
0.002172
0.002195
0.002229
0.00221
0.002291
0.002307
0.002256
0.002347
0.002259
0.002211
0.002306
0.002338
0.002216
0.002305
0.002338
0.002188
0.002346
0.002148
0.002291
0.002349
0.002318
0.002309
0.002316
0.002203
0.002324
0.002245
0.002327
0.002266
0.002353
0.002255
0.002336
0.002238
0.002317
0.002191
0.002331
0.0023
0.002361
0.002162
0.002265
0.002287
0.002354
0.002338
0.002163
0.002284
0.002201
0.002308
0.002149
0.002273
0.002145
0.002334
0.002239
0.002284
0.002335
0.002178
0.002332
0.002257
0.00226
0.002279
0.002215
0.002352
0.002204
0.00221
0.002266
0.002295
0.002238
0.002306
0.002167
0.00217
0.002248
0.002259
0.002344
0.002339
0.002269
0.002256
0.002214
0.002268
0.00215
0.002272
0.002277
0.002191
0.002331
0.002286
0.002142
0.002165
0.002203
0.002234
0.00234
0.002349
0.002352
0.002346
0.002271
0.002317
0.002345
0.002357
0.002208
0.002228
0.002172
0.002261
0.002341
0.002318
0.002251
0.002294
0.002304
0.002321
0.002322
0.002339
0.002274
0.002224
0.002324
0.002303
0.002358
0.002339
0.002229
0.002334
0.002186
0.002329
0.002195
0.002195
0.002228
0.002269
0.002187
0.002304
0.00229
0.002182
0.002174
0.002269
0.002258
0.002179
0.002312
0.002275
0.002255
0.002327
0.002157
0.002233
0.002346
0.002331
0.002252
0.002294
0.002244
0.002335
0.002305
0.002242
0.002189
0.002337
0.002298
0.002169
0.002283
0.002141
0.002256
0.00227
0.002353
0.002337
0.002321
0.002159
0.002269
0.002235
0.002192
0.002156
0.002325
0.002317
0.002285
0.002306
0.002195
0.002144
0.002255
0.002296
0.002281
0.002314
0.002214
0.002177
0.002198
0.002151
0.002311
0.002328
0.002323
0.002355
0.002283
0.002343
0.002244
0.002286
0.002325
0.00234
0.002231
0.00224
0.002223
0.002191
0.00234
    <DataArray type="Float64" Name="particleIndex"/>
0
1
2
3
4
5
6
7
8
9
10
11
12
13
14
15
16
17
18
19
20
21
22
23
24
25
26
27
28
29
30
31
32
33
34
35
36
37
38
39
40
41
42
43
44
45
46
47
48
49
50
51
52
53
54
55
56
57
58
59
60
61
62
63
64
65
66
67
68
69
70
71
72
73
74
75
76
77
78
79
80
81
82
83
84
85
86
87
88
89
90
91
92
93
94
95
96
97
98
99
100
101
102
103
104
105
106
107
108
109
110
111
112
113
114
115
116
117
118
119
120
121
122
123
124
125
126
127
128
129
130
131
132
133
134
135
136
137
138
139
140
141
142
143
144
145
146
147
148
149
150
151
152
153
154
155
156
157
158
159
160
161
162
163
164
165
166
167
168
169
170
171
172
173
174
175
176
177
178
179
180
181
182
183
184
185
186
187
188
189
190
191
192
193
194
195
196
197
198
199
200
201
202
203
204
205
206
207
208
209
210
211
212
213
214
215
216
217
218
219
220
221
222
223
224
225
226
227
228
229
230
231
232
233
234
235
236
237
238
239
240
241
242
243
244
245
246
247
248
249
250
251
252
253
254
255
256
257
258
259
260
261
262
263
264
265
266
267
268
269
270
271
272
273
274
275
276
277
278
279
280
281
282
283
284
285
286
287
288
289
290
291
292
293
294
295
296
297
298
299
300
301
302
303
304
305
306
307
308
309
310
311
312
313
314
315
316
317
318
319
320
321
322
323
324
325
326
327
328
329
330
331
332
333
334
335
336
337
338
339
340
341
342
343
344
345
346
347
348
349
350
351
352
353
354
355
356
357
358
359
360
361
362
363
364
365
366
367
368
369
370
371
372
373
374
375
376
377
378
379
380
381
382
383
384
385
386
387
388
389
390
391
392
393
394
395
396
397
398
399
400
401
402
403
404
405
406
407
408
409
410
411
412
413
414
415
416
417
418
419
420
421
422
423
424
425
426
427
428
429
430
431
432
433
434
435
436
437
438
439
440
441
442
443
444
445
446
447
448
449
450
451
452
453
454
455
456
457
458
459
460
461
462
463
464
465
466
467
468
469
470
471
472
473
474
475
476
477
478
479
480
481
482
483
484
485
486
487
488
489
490
491
492
493
494
495
496
497
498
499
500
501
502
503
504
505
506
507
508
509
510
511
512
513
514
515
516
517
518
519
520
521
522
523
524
525
526
527
528
529
530
531
532
533
534
535
536
537
538
539
540
541
542
543
544
545
546
547
548
549
550
551
552
553
554
555
556
557
558
559
560
561
562
563
564
565
566
567
568
569
570
571
572
573
574
575
576
577
578
579
580
581
582
583
584
585
586
587
588
589
590
591
592
593
594
595
596
597
598
599
600
601
602
603
604
605
606
607
608
609
610
611
612
613
614
615
616
617
618
619
620
621
622
623
624
625
626
627
628
629
630
631
632
633
634
635
636
637
638
639
640
641
642
643
644
645
646
647
648
649
650
651
652
653
654
655
656
657
658
659
660
661
662
663
664
665
666
667
668
669
670
671
672
673
674
675
676
677
678
679
680
681
682
683
684
685
686
687
688
689
690
691
692
693
694
695
696
697
698
699
700
701
702
703
704
705
706
707
708
709
710
711
712
713
714
715
716
717
718
719
720
721
722
723
724
725
726
727
728
729
730
731
732
733
734
735
736
737
738
739
740
741
742
743
744
745
746
747
748
749
750
751
752
753
754
755
756
757
758
759
760
761
762
763
764
765
766
767
768
769
770
771
772
773
774
775
776
777
778
779
780
781
782
783
784
785
786
787
788
789
790
791
792
793
794
795
796
797
798
799
800
801
802
803
804
805
806
807
808
809
810
811
812
813
814
815
816
817
818
819
820
821
822
823
824
825
826
827
828
829
830
831
832
833
834
835
836
837
838
839
840
841
842
843
844
845
846
847
848
849
850
851
852
853
854
855
856
857
858
859
860
861
862
863
864
865
866
867
868
869
870
871
872
873
874
875
876
877
878
879
880
881
882
883
884
885
886
887
888
889
890
891
892
893
894
895
896
897
898
899
900
901
902
903
904
905
906
907
908
909
910
911
912
913
914
915
916
917
918
919
920
921
922
923
924
925
926
927
928
929
930
931
932
933
934
935
936
937
938
939
940
941
942
943
944
945
946
947
948
949
950
951
952
953
954
955
956
957
958
959
960
961
962
963
964
965
966
967
968
969
970
971
972
973
974
975
976
977
978
979
980
981
982
983
984
985
986
987
988
989
990
991
992
993
994
995
996
997
998
999
1000
1001
1002
1003
1004
1005
1006
1007
1008
1009
1010
1011
1012
1013
1014
1015
1016
1017
1018
1019
1020
1021
1022
1023
1024
1025
1026
1027
1028
1029
1030
1031
1032
1033
1034
1035
1036
1037
1038
1039
1040
1041
1042
1043
1044
1045
1046
1047
1048
1049
1050
1051
1052
1053
1054
1055
1056
1057
1058
1059
1060
1061
1062
1063
1064
1065
1066
1067
1068
1069
1070
1071
1072
1073
1074
1075
1076
1077
1078
1079
1080
1081
1082
1083
1084
1085
1086
1087
1088
1089
1090
1091
1092
1093
1094
1095
1096
1097
1098
1099
1100
1101
1102
1103
1104
1105
1106
1107
1108
1109
1110
1111
1112
1113
1114
1115
1116
1117
1118
1119
1120
1121
1122
1123
1124
1125
1126
1127
1128
1129
1130
1131
1132
1133
1134
1135
1136
1137
1138
1139
1140
1141
1142
1143
1144
1145
1146
1147
1148
1149
1150
1151
1152
1153
1154
1155
1156
1157
1158
1159
1160
1161
1162
1163
1164
1165
1166
1167
1168
1169
1170
1171
1172
1173
1174
1175
1176
1177
1178
1179
1180
1181
1182
1183
1184
1185
1186
1187
1188
1189
1190
1191
1192
1193
1194
1195
1196
1197
1198
1199
1200
1201
1202
1203
1204
1205
1206
1207
1208
1209
1210
1211
1212
1213
1214
1215
1216
1217
1218
1219
1220
1221
1222
1223
1224
1225
1226
1227
1228
1229
1230
1231
1232
1233
1234
1235
1236
1237
1238
1239
1240
1241
1242
1243
1244
1245
1246
1247
1248
1249
1250
1251
1252
1253
1254
1255
1256
1257
1258
1259
1260
1261
1262
1263
1264
1265
1266
1267
1268
1269
1270
1271
1272
1273
1274
1275
1276
1277
1278
1279
1280
1281
1282
1283
1284
1285
1286
1287
1288
1289
1290
1291
1292
1293
1294
1295
1296
1297
1298
1299
1300
1301
1302
1303
1304
1305
1306
1307
1308
1309
1310
1311
1312
1313
1314
1315
1316
1317
1318
1319
1320
1321
1322
1323
1324
1325
1326
1327
1328
1329
1330
1331
1332
1333
1334
1335
1336
1337
1338
1339
1340
1341
1342
1343
1344
1345
1346
1347
1348
1349
1350
1351
1352
1353
1354
1355
1356
1357
1358
1359
1360
1361
1362
1363
1364
1365
1366
1367
1368
1369
1370
1371
1372
1373
1374
1375
1376
1377
1378
1379
1380
1381
1382
1383
1384
1385
1386
1387
1388
1389
1390
1391
1392
1393
1394
1395
1396
1397
1398
1399
1400
1401
1402
1403
1404
1405
1406
1407
1408
1409
1410
1411
1412
1413
1414
1415
1416
1417
1418
1419
1420
1421
1422
1423
1424
1425
1426
1427
1428
1429
1430
1431
1432
1433
1434
1435
1436
1437
1438
1439
1440
1441
1442
1443
1444
1445
1446
1447
1448
1449
1450
1451
1452
1453
1454
1455
1456
1457
1458
1459
1460
1461
1462
1463
1464
1465
1466
1467
1468
1469
1470
1471
1472
1473
1474
1475
1476
1477
1478
1479
1480
1481
1482
1483
1484
1485
1486
1487
1488
1489
1490
1491
1492
1493
1494
1495
1496
1497
1498
1499
1500
1501
    <DataArray type="Float64" Name="clusterIndex"/>
0
1
2
3
4
5
6
7
8
9
10
11
12
13
14
15
16
17
18
19
20
21
22
23
24
25
26
27
28
29
30
31
32
33
34
35
36
37
38
39
40
41
42
43
44
45
46
47
48
49
50
51
52
53
54
55
56
57
58
59
60
61
62
63
64
65
66
67
68
69
70
71
72
73
74
75
76
77
78
79
80
81
82
83
84
85
86
87
88
89
90
91
92
93
94
95
96
97
98
99
100
101
102
103
104
105
106
107
108
109
110
111
112
113
114
115
116
117
118
119
120
121
122
123
124
125
126
127
128
129
130
131
132
133
134
135
136
137
138
139
140
141
142
143
144
145
146
147
148
149
150
151
152
153
154
155
156
157
158
159
160
161
162
163
164
165
166
167
168
169
170
171
172
173
174
175
176
177
178
179
180
181
182
183
184
185
186
187
188
189
190
191
192
193
194
195
196
197
198
199
200
201
202
203
204
205
206
207
208
209
210
211
212
213
214
215
216
217
218
219
220
221
222
223
224
225
226
227
228
229
230
231
232
233
234
235
236
237
238
239
240
241
242
243
244
245
246
247
248
249
250
251
252
253
254
255
256
257
258
259
260
261
262
263
264
265
266
267
268
269
270
271
272
273
274
275
276
277
278
279
280
281
282
283
284
285
286
287
288
289
290
291
292
293
294
295
296
297
298
299
300
301
302
303
304
305
306
307
308
309
310
311
312
313
314
315
316
317
318
319
320
321
322
323
324
325
326
327
328
329
330
331
332
333
334
335
336
337
338
339
340
341
342
343
344
345
346
347
348
349
350
351
352
353
354
355
356
357
358
359
360
361
362
363
364
365
366
367
368
369
370
371
372
373
374
375
376
377
378
379
380
381
382
383
384
385
386
387
388
389
390
391
392
393
394
395
396
397
398
399
400
401
402
403
404
405
406
407
408
409
410
411
412
413
414
415
416
417
418
419
420
421
422
423
424
425
426
427
428
429
430
431
432
433
434
435
436
437
438
439
440
441
442
443
444
445
446
447
448
449
450
451
452
453
454
455
456
457
458
459
460
461
462
463
464
465
466
467
468
469
470
471
472
473
474
475
476
477
478
479
480
481
482
483
484
485
486
487
488
489
490
491
492
493
494
495
496
497
498
499
500
501
502
503
504
505
506
507
508
509
510
511
512
513
514
515
516
517
518
519
520
521
522
523
524
525
526
527
528
529
530
531
532
533
534
535
536
537
538
539
540
541
542
543
544
545
546
547
548
549
550
551
552
553
554
555
556
557
558
559
560
561
562
563
564
565
566
567
568
569
570
571
572
573
574
575
576
577
578
579
580
581
582
583
584
585
586
587
588
589
590
591
592
593
594
595
596
597
598
599
600
601
602
603
604
605
606
607
608
609
610
611
612
613
614
615
616
617
618
619
620
621
622
623
624
625
626
627
628
629
630
631
632
633
634
635
636
637
638
639
640
641
642
643
644
645
646
647
648
649
650
651
652
653
654
655
656
657
658
659
660
661
662
663
664
665
666
667
668
669
670
671
672
673
674
675
676
677
678
679
680
681
682
683
684
685
686
687
688
689
690
691
692
693
694
695
696
697
698
699
700
701
702
703
704
705
706
707
708
709
710
711
712
713
714
715
716
717
718
719
720
721
722
723
724
725
726
727
728
729
730
731
732
733
734
735
736
737
738
739
740
741
742
743
744
745
746
747
748
749
750
751
752
753
754
755
756
757
758
759
760
761
762
763
764
765
766
767
768
769
770
771
772
773
774
775
776
777
778
779
780
781
782
783
784
785
786
787
788
789
790
791
792
793
794
795
796
797
798
799
800
801
802
803
804
805
806
807
808
809
810
811
812
813
814
815
816
817
818
819
820
821
822
823
824
825
826
827
828
829
830
831
832
833
834
835
836
837
838
839
840
841
842
843
844
845
846
847
848
849
850
851
852
853
854
855
856
857
858
859
860
861
862
863
864
865
866
867
868
869
870
871
872
873
874
875
876
877
878
879
880
881
882
883
884
885
886
887
888
889
890
891
892
893
894
895
896
897
898
899
900
901
902
903
904
905
906
907
908
909
910
911
912
913
914
915
916
917
1
2
4
6
7
10
11
12
14
15
19
20
22
23
24
25
27
28
29
33
37
38
42
44
45
48
50
51
52
55
56
58
59
60
64
65
67
68
69
71
72
74
75
77
79
80
81
83
84
87
88
90
92
93
95
96
97
99
102
104
107
109
110
111
112
114
115
117
119
122
123
124
125
126
127
129
132
133
134
135
138
140
142
143
145
146
148
154
155
156
157
159
160
161
162
164
165
167
169
174
176
177
178
179
182
184
185
186
188
189
190
192
193
194
195
196
197
198
200
201
202
203
206
208
209
210
211
214
215
216
217
218
219
220
223
225
227
228
229
231
232
233
234
235
236
240
244
246
248
249
250
251
253
254
255
257
259
260
261
263
264
265
267
269
270
271
272
275
277
279
281
282
283
285
286
288
289
291
292
293
294
296
297
299
300
302
303
304
306
308
310
313
317
319
320
322
324
325
329
330
332
333
334
335
336
337
338
340
341
343
352
356
357
358
360
361
362
364
365
366
367
368
369
370
371
373
374
375
376
377
378
383
385
386
387
388
389
391
393
395
396
398
402
403
405
407
410
412
414
416
418
426
429
430
433
434
435
436
437
438
439
440
441
442
443
448
452
454
455
458
459
460
462
463
464
467
468
471
473
474
475
477
478
480
483
484
487
488
490
491
492
493
494
496
497
498
499
500
501
504
505
506
507
508
509
510
512
514
515
516
517
518
519
520
521
522
524
527
528
530
533
534
535
536
537
538
540
541
542
543
544
546
548
551
552
554
555
556
557
559
561
562
563
565
566
568
569
571
572
573
574
575
576
577
578
579
581
583
584
585
587
588
589
593
594
599
600
601
602
603
605
606
607
608
609
610
612
614
615
616
619
622
624
625
626
627
629
631
634
635
636
637
638
639
640
641
642
643
644
645
647
652
654
655
657
658
659
660
662
663
664
667
668
669
672
674
675
676
677
678
680
682
683
685
686
688
691
692
694
696
697
699
701
703
705
706
707
708
710
711
712
713
714
716
718
719
722
724
729
730
731
733
734
735
737
738
739
741
743
744
745
746
748
749
750
752
753
756
757
758
759
760
761
762
763
764
766
767
769
770
771
772
773
774
775
776
777
778
779
782
784
786
787
789
790
791
792
793
796
799
800
801
802
803
804
806
808
809
811
812
813
815
816
818
819
820
821
822
823
824
825
826
828
829
831
832
833
834
836
838
839
840
841
842
843
844
846
847
848
849
850
851
852
853
854
855
856
858
859
860
861
862
863
864
865
866
869
870
871
872
874
875
876
878
879
882
885
886
889
890
894
895
897
898
899
900
901
905
907
909
912
915
916
917
    <DataArray type="Float64" Name="coordinationNumber"/>
0
0
0
0
0
0
0
0
0
0
0
0
0
0
0
0
0
0
0
0
0
0
0
0
0
0
0
0
0
0
0
0
0
0
0
0
0
0
0
0
0
0
0
0
0
0
0
0
0
0
0
0
0
0
0
0
0
0
0
0
0
0
0
0
0
0
0
0
0
0
0
0
0
0
0
0
0
0
0
0
0
0
0
0
0
0
0
0
0
0
0
0
0
0
0
0
0
0
0
0
0
0
0
0
0
0
0
0
0
0
0
0
0
0
0
0
0
0
0
0
0
0
0
0
0
0
0
0
0
0
0
0
0
0
0
0
0
0
0
0
0
0
0
0
0
0
0
0
0
0
0
0
0
0
0
0
0
0
0
0
0
0
0
0
0
0
0
0
0
0
0
0
0
0
0
0
0
0
0
0
0
0
0
0
0
0
0
0
0
0
0
0
0
0
0
0
0
0
0
0
0
0
0
0
0
0
0
0
0
0
0
0
0
0
0
0
0
0
0
0
0
0
0
0
0
0
0
0
0
0
0
0
0
0
0
0
0
0
0
0
0
0
0
0
0
0
0
0
0
0
0
0
0
0
0
0
0
0
0
0
0
0
0
0
0
0
0
0
0
0
0
0
0
0
0
0
0
0
0
0
0
0
0
0
0
0
0
0
0
0
0
0
0
0
0
0
0
0
0
0
0
0
0
0
0
0
0
0
0
0
0
0
0
0
0
0
0
0
0
0
0
0
0
0
0
0
0
0
0
0
0
0
0
0
0
0
0
0
0
1
0
0
0
0
0
0
0
0
0
0
0
0
0
0
0
0
0
0
0
0
0
0
0
0
0
0
0
0
0
0
0
0
1
0
0
0
0
2
0
0
0
0
0
0
0
0
0
2
0
0
0
0
0
0
0
0
0
0
0
0
0
0
0
0
0
0
0
0
0
0
0
0
0
0
0
0
0
0
0
0
0
0
0
0
0
0
0
0
0
0
0
0
0
0
0
0
0
0
0
0
0
0
0
2
0
0
0
0
0
0
0
0
0
0
2
0
0
0
0
0
0
0
0
0
0
0
0
0
0
0
0
0
0
0
0
0
0
2
2
0
0
0
0
0
0
0
0
0
0
0
0
0
0
0
0
0
0
0
0
0
0
0
0
0
0
0
0
0
0
0
0
0
0
0
0
0
0
0
0
0
0
0
0
0
0
0
0
0
0
0
0
0
0
0
0
0
0
0
0
0
0
0
0
0
0
0
0
0
0
0
0
0
0
0
0
0
0
0
0
0
0
0
0
0
0
0
0
0
0
2
0
0
0
0
0
0
0
0
0
0
0
0
0
0
0
0
0
0
0
0
0
0
0
0
0
0
0
0
0
0
0
0
0
2
0
0
0
0
0
0
0
0
0
0
0
0
0
0
0
0
0
0
0
0
0
0
0
0
0
0
0
0
0
0
0
0
0
0
0
0
0
0
0
0
0
0
0
0
0
0
0
0
0
0
0
0
0
0
0
0
0
0
0
0
0
0
0
0
0
0
0
0
0
0
0
0
0
0
0
0
0
0
0
0
0
0
0
0
0
0
0
0
0
0
0
0
0
0
0
0
0
0
0
0
0
0
0
0
0
0
0
0
0
0
0
0
0
0
0
0
0
0
0
0
0
1
1
0
0
0
0
0
0
0
0
0
0
0
0
0
0
0
0
0
0
0
0
0
0
0
0
0
0
0
0
0
0
0
0
0
0
0
0
0
0
0
0
0
0
0
0
0
0
0
0
0
0
0
0
0
0
0
0
0
0
0
0
0
0
0
0
0
0
0
0
0
0
0
0
0
0
0
0
0
0
0
0
0
0
0
0
0
0
2
0
0
0
0
0
0
0
0
0
0
0
0
0
0
0
2
0
0
0
0
0
0
0
0
0
0
0
0
0
0
0
0
0
0
2
0
0
0
0
0
0
0
0
0
0
0
0
0
0
0
4
0
0
0
0
0
0
0
0
0
0
0
0
0
0
0
1
0
0
0
0
0
0
1
0
0
0
0
0
0
0
0
0
1
2
1
0
0
1
0
2
1
0
0
0
0
0
0
0
0
0
0
0
0
0
0
0
0
0
0
0
0
0
0
0
0
0
0
0
0
0
0
0
0
0
0
0
0
0
0
0
0
0
0
0
0
0
0
0
0
0
0
0
0
0
0
0
0
0
0
0
0
0
0
0
0
0
0
0
0
0
0
0
0
0
0
0
0
0
0
0
0
0
0
0
0
0
0
0
0
0
0
0
0
0
0
0
0
0
0
0
0
0
0
0
0
0
0
0
0
0
0
0
0
0
0
0
0
0
0
0
0
0
0
0
0
0
0
0
0
0
0
0
0
0
0
0
0
0
0
0
0
0
0
0
0
0
0
0
0
0
0
0
0
0
0
0
0
0
0
0
0
0
0
0
0
0
0
0
0
0
0
0
0
0
0
0
0
0
0
0
0
0
0
0
0
0
0
0
0
0
0
0
0
0
0
0
0
0
0
0
0
0
0
0
0
0
0
0
0
0
0
0
0
0
0
0
0
0
0
0
0
0
0
0
0
0
0
0
0
0
0
0
0
0
0
0
0
0
0
0
0
0
2
0
0
0
0
2
0
0
0
0
0
0
0
0
0
0
0
0
0
0
0
0
0
0
0
0
0
0
0
0
0
0
0
0
0
2
0
0
2
0
0
0
0
0
0
0
0
0
0
0
0
0
2
2
0
0
0
0
0
0
0
0
0
0
0
0
0
0
0
0
0
0
0
0
0
0
0
0
0
0
0
0
0
0
0
0
0
0
0
0
0
0
0
0
0
0
0
0
0
0
0
0
0
0
0
0
0
0
0
0
0
0
0
0
0
0
0
2
0
0
0
0
0
0
0
0
0
0
0
0
0
0
0
0
0
0
0
0
0
0
2
0
0
0
0
0
0
0
0
0
0
0
0
0
0
0
0
0
0
0
0
0
0
0
0
0
0
0
0
0
0
0
0
0
0
0
0
0
0
0
0
0
0
0
0
0
0
0
0
0
0
0
0
0
0
0
0
0
0
0
0
0
0
0
0
0
0
0
0
0
0
0
0
0
0
0
0
0
0
0
0
0
0
0
0
0
0
0
0
0
0
0
0
0
0
0
0
0
0
0
0
0
0
0
0
0
0
0
0
0
0
0
0
0
0
0
0
0
0
0
0
0
0
0
0
0
0
0
0
0
0
0
0
0
0
0
0
0
0
0
0
2
0
0
0
0
0
0
0
0
0
0
0
0
2
0
0
0
0
0
0
0
0
0
0
0
0
0
0
2
0
0
0
0
0
0
0
0
0
0
0
0
0
0
4
0
0
0
0
0
0
0
0
0
0
0
0
0
0
0
0
0
0
1
2
1
0
0
1
0
0
0
0
0
0
    <DataArray type="Float64" Name="v" NumberOfComponents="3"/>
0.07101142 0.00151223 -0.01721594
0.03210929 -0.00738028 -0.01844307
0.15740655 -0.09335962 0.10517452
0.15710140 -0.00226372 0.00074605
0.03322389 -0.04715644 -0.09601025
0.02836594 0.08740478 -0.02840701
0.09021381 -0.18295277 0.18624058
-0.03824527 0.01488999 0.08259790
0.00741144 0.22106941 0.01503393
-0.01025863 0.01116945 -0.03800472
0.00236295 -0.02092610 -0.07586188
0.04610141 0.00130359 -0.02786478
0.07316376 -0.06345770 -0.12614930
0.07102274 0.06768982 -0.07256934
0.10660903 -0.05787883 -0.05706614
0.01839134 -0.05435772 -0.01078304
0.12402015 0.11355433 -0.07057981
0.09954818 0.00997293 -0.01826461
0.00541614 0.06133361 -0.01502214
0.05485143 -0.04068716 -0.01671026
0.06403748 -0.09337808 0.00273006
0.06858854 0.12591895 -0.01657974
0.05358584 -0.01789336 -0.02568386
0.07386499 -0.02946331 0.00592542
0.02356014 0.01142009 -0.06469578