<?xml version="1.0"?>
<VTKFile type="UnstructuredGrid" version="0.1" byte_order="LittleEndian" compressor="vtkZLibDataCompressor">
 <UnstructuredGrid GhostLevel="0">
  <Piece NumberOfPoints="2" NumberOfCells="2">
   <PointData>
    <DataArray type="Float64" Name="radius"/>
0.008
0.008
    <DataArray type="Float64" Name="objectIndex"/>
0
1
    <DataArray type="Float64" Name="v" NumberOfComponents="3"/>
7.5	0	0
7.5	0	0
    <DataArray type="Float64" Name="FParticle" NumberOfComponents="3"/>
0	0	0
0	0	0
    <DataArray type="Float64" Name="FHydro" NumberOfComponents="3"/>
0	0	0
0	0	0
    <DataArray type="Float64" Name="maxFParticle" NumberOfComponents="3"/>
0	0	0
0	0	0
    <DataArray type="Float64" Name="savedFParticle" NumberOfComponents="3"/>
0	0	0
0	0	0
    <DataArray type="Float64" Name="timeMaxFParticle"/>
0
0
   </PointData>
   <CellData>
   </CellData>
   <Points>
    <DataArray type="Float64" Name="Points" NumberOfComponents="3"/>
5881.07	0.035	0.0675
5881.07	0.1046	0.0675
   </Points>
   <Cells>
    <DataArray type="Int64" Name="connectivity" format="ascii">
0
1
    </DataArray>
    <DataArray type="Int64" Name="offsets" format="ascii">
1
2
    </DataArray>
    <DataArray type="Int64" Name="types" format="ascii">
1
1
    </DataArray>
   </Cells>
  </Piece>
 </UnstructuredGrid>
</VTKFile>