<?xml version="1.0"?>
<VTKFile type="UnstructuredGrid" version="0.1" byte_order="LittleEndian" compressor="vtkZLibDataCompressor">
 <UnstructuredGrid GhostLevel="0">
  <Piece NumberOfPoints="1" NumberOfCells="1">
   <PointData>
    <DataArray type="Float64" Name="radius"/>
0.1
    <DataArray type="Float64" Name="mass"/>
10.472
    <DataArray type="Float64" Name="particleIndex"/>
0
    <DataArray type="Float64" Name="clusterIndex"/>
0
    <DataArray type="Float64" Name="v" NumberOfComponents="3"/>
-2.11048e-18 2.756e-06 -1.13666e-12
    <DataArray type="Float64" Name="w" NumberOfComponents="3"/>
0.000372137 -3.34984e-18 -3.05748e-18
    <DataArray type="Float64" Name="FParticle" NumberOfComponents="3"/>
0 0 0
    <DataArray type="Float64" Name="FGrav" NumberOfComponents="3"/>
0 0 -102.73
    <DataArray type="Float64" Name="MParticle" NumberOfComponents="3"/>
0 0 0
    <DataArray type="Float64" Name="FWall" NumberOfComponents="3"/>
7.99361e-15 -8.48308 102.73
    <DataArray type="Float64" Name="MWall" NumberOfComponents="3"/>
-0.861551 -2.9976e-15 -1.27676e-15
    <DataArray type="Float64" Name="FHydro" NumberOfComponents="3"/>
0 0 0
    <DataArray type="Float64" Name="FSpringP" NumberOfComponents="3"/>
0 0 0
    <DataArray type="Float64" Name="FSpringW" NumberOfComponents="3"/>
7.10543e-15 -8.37651 17.3312
    <DataArray type="Float64" Name="MRolling" NumberOfComponents="3"/>
-2.09193 -9.68052e-16 1.28576e-15
   </PointData>
   <CellData>
   </CellData>
   <Points>
    <DataArray type="Float64" Name="Points" NumberOfComponents="3"/>
2 2 0.303278
   </Points>
   <Cells>
    <DataArray type="Int64" Name="connectivity" format="ascii">
0
    </DataArray>
    <DataArray type="Int64" Name="offsets" format="ascii">
1
    </DataArray>
    <DataArray type="Int64" Name="types" format="ascii">
1
    </DataArray>
   </Cells>
  </Piece>
 </UnstructuredGrid>
</VTKFile>