<?xml version="1.0"?>
<VTKFile type="UnstructuredGrid" version="0.1" byte_order="LittleEndian" compressor="vtkZLibDataCompressor">
 <UnstructuredGrid GhostLevel="0">
  <Piece NumberOfPoints="1056" NumberOfCells="1056">
   <PointData>
    <DataArray type="Float64" Name="Elongation" NumberOfComponents="3"/>
-1.535e-05 -2.92768e-05 2.2627e-05
-6.20094e-06 -7.03698e-06 -6.66369e-06
0.00069889 0.000393783 -5.7516e-05
-0.00131641 -0.00237363 -0.000408945
-0.00121214 -0.000871885 -0.000965138
5.95162e-05 0.000128913 -0.000169018
-0.00104121 -0.000844391 0.000650438
-6.50703e-05 -0.000103428 -0.000135767
0.00021913 0.000268951 -0.000120456
-1.12668e-05 -1.70336e-05 8.73901e-07
-4.32201e-06 -4.28762e-06 5.04374e-06
0.000324643 0.000128409 0.000207997
1.5813e-05 9.42874e-06 4.91828e-06
0.00872945 0.00480974 0.0078416
5.19389e-06 8.35561e-06 -5.04772e-06
-6.71219e-06 -7.61589e-06 -5.82422e-06
4.63352e-05 3.46502e-05 1.44906e-05
-1.91533e-05 -6.3361e-05 0.000329032
2.95677e-05 3.54336e-05 -2.08975e-05
-0.00154105 -0.00212428 -0.00270196
0.000444664 0.000299215 -6.16577e-05
1.52832e-05 -1.85436e-06 6.46907e-05
5.04249e-05 5.93775e-05 5.08322e-05
-0.000256966 -0.000390558 2.43505e-06
-0.00076676 -0.00121513 0.000403511
0.000181095 8.4294e-05 0.000153777
8.63148e-05 4.78616e-05 5.7684e-05
9.01016e-06 1.21115e-05 -1.76749e-05
-5.27443e-06 1.57186e-05 5.59074e-05
0.00109427 0.000686518 -1.30941e-05
0.000196588 0.000282666 0.000975917
7.51821e-06 8.06876e-06 7.79792e-06
4.05836e-06 3.0305e-05 -6.71671e-05
-8.10972e-05 4.70546e-05 -0.000503806
-7.5708e-05 -6.96367e-05 -6.94573e-05
-5.84704e-05 -6.67492e-05 -1.73028e-05
-8.85373e-05 -0.000139464 9.80403e-05
0.00108956 0.000692346 -1.57403e-05
7.9074e-05 5.79651e-05 2.4849e-06
6.19555e-05 4.99411e-05 -1.27584e-05
-4.48172e-06 9.15702e-06 3.41191e-05
1.82159e-05 3.46398e-05 8.37668e-05
7.30633e-05 0.000112258 -3.393e-05
-1.35958e-05 -9.21179e-06 -5.79184e-06
-0.00310248 0.00520749 -0.0116966
-0.00422543 -0.00218793 0.0274156
1.68425e-05 -2.53981e-05 -5.60598e-06
2.24059e-05 -3.97195e-05 1.74634e-05
-0.000112958 0.000236864 -0.000672421
0.00289042 -0.00208576 0.000126063
-0.00048305 0.000687349 0.000241447
-0.000423889 0.000727765 -5.94416e-05
-0.000318691 0.000520137 1.49678e-05
-0.00019441 -0.000198212 -0.000168403
3.07823e-05 -7.30038e-05 -6.4974e-05
-0.000708324 -0.00104253 0.000163385
0.000175829 -0.000122025 7.64546e-06
-0.000325441 0.000540243 2.91004e-06
-0.000487105 -0.000750915 -8.80791e-06
0.00104918 -0.000934143 -0.00171318
-7.90498e-05 9.48268e-05 6.12164e-05
-5.30174e-05 7.81127e-05 -2.72562e-05
0.000127765 -0.000181216 -5.41081e-05
-0.000149379 0.000106678 0.000569517
2.00498e-05 -2.21107e-05 -1.63212e-05
-9.41842e-06 2.12923e-05 -1.77406e-05
6.26498e-06 -1.00453e-05 -2.65209e-07
-0.000809269 0.00082201 0.0027242
-0.000487824 0.000763258 -0.000792036
-1.60777e-05 -1.60057e-05 1.21361e-05
-1.4791e-05 -5.74762e-05 -0.00020631
1.46317e-06 -1.3745e-05 -2.8568e-05
3.90318e-06 -2.67737e-05 -5.73222e-05
-6.06022e-05 -6.74836e-05 2.57177e-05
-3.62748e-05 5.62949e-05 -5.33301e-06
-1.7515e-05 -1.894e-05 1.03263e-05
0.000114153 -0.000103811 -1.78429e-05
-0.000276684 0.000153397 0.000629648
1.51522e-05 -2.03365e-05 7.34162e-07
6.705e-05 0.000143655 0.000138916
-0.000808171 0.00143408 0.00111552
-0.000308988 0.000186122 0.000179045
-0.0011076 0.00186303 0.00117976
0.00045351 -0.000390039 0.000462333
-0.000168837 -0.000148471 -0.00096616
-1.27676e-05 1.00355e-05 2.33539e-06
0.000604177 0.000818285 0.00010744
-5.47361e-05 5.3501e-05 6.39464e-07
-2.08636e-05 2.09033e-05 2.11797e-06
0.000618261 -0.000671294 0.000382508
7.78137e-06 -1.07663e-05 -1.12902e-06
-1.40321e-05 1.41236e-05 6.926e-06
-6.70551e-06 -7.81315e-06 6.80563e-06
-1.57381e-05 2.40061e-05 5.59302e-06
-4.5168e-05 6.99277e-05 1.43715e-05
-2.73923e-05 5.23098e-05 -1.10019e-05
6.40982e-06 -1.31505e-05 8.85637e-06
4.73024e-06 -5.58571e-06 2.93172e-07
3.76559e-05 -7.48963e-05 -2.68295e-05
7.16661e-06 8.44173e-06 5.25219e-05
-0.00076485 0.00062203 -0.000636057
-6.64678e-05 5.97423e-05 -5.42671e-05
-0.000231958 0.000367524 -7.9671e-05
-8.42638e-06 3.62158e-05 0.000148883
1.84028e-05 -2.94097e-05 4.77672e-06
-4.2651e-06 8.93411e-06 3.23761e-06
7.32863e-06 -5.87286e-06 1.29793e-05
-3.43256e-05 5.41045e-05 3.09263e-06
-3.44719e-06 2.94702e-06 -5.96889e-06
6.59823e-05 -0.000102237 -1.75614e-05
0.000777352 0.000824211 -0.000425409
1.1308e-05 -2.03903e-05 -5.38171e-05
0.000113102 -0.00028803 -0.000148695
-3.90837e-06 -8.2483e-06 -1.49806e-05
0.000159251 -0.00204103 0.00205758
3.74744e-07 3.74454e-06 -2.85578e-06
-9.44446e-06 -4.48015e-05 -5.36014e-05
-1.65476e-05 2.85602e-05 -4.25633e-05
-2.58858e-05 -4.37338e-05 -6.83228e-05
-5.89991e-05 0.000135254 -1.98931e-05
-0.00135202 -0.00165324 0.000398247
2.26131e-05 -6.42495e-05 6.25369e-05
0.000509919 -4.00064e-05 -0.000651456
1.5842e-05 -1.37342e-05 5.02124e-06
-1.63129e-05 2.71522e-08 -2.05799e-07
-8.55245e-05 8.48341e-05 -5.55965e-06
1.22e-05 -2.17348e-05 -1.89759e-06
7.49079e-05 -5.45526e-06 5.52072e-05
0.000369584 -0.000438288 0.000772699
2.56498e-05 4.89066e-05 -6.65666e-06
-0.000220118 1.14906e-05 -2.22613e-05
0.000115554 2.7951e-05 0.000124572
0.000158327 -0.000393303 6.40363e-05
1.61674e-05 2.23503e-05 -3.47862e-05
4.17886e-05 4.20955e-06 -8.96769e-05
-0.000143203 -6.66449e-05 0.000193162
-0.000224269 0.000192611 -3.68428e-05
1.04898e-05 3.50777e-05 -5.59496e-05
2.7027e-05 -3.83715e-06 -1.07148e-05
-9.89393e-06 1.31062e-05 2.14611e-05
1.58653e-05 1.22719e-05 1.53314e-05
1.44705e-05 1.59327e-05 -2.81382e-07
3.87757e-06 1.40709e-06 -1.49535e-06
-1.05824e-05 -2.24603e-05 6.17076e-05
-8.27446e-06 -8.80781e-06 -2.49083e-06
0.000132976 -0.000433794 -0.000448727
1.58029e-05 2.51601e-05 2.40555e-05
-3.60841e-05 0.000127906 -8.74568e-05
-3.33449e-05 3.65797e-05 2.16401e-05
0.000280683 0.000292254 0.000154314
-0.000133197 0.00159969 -0.000585558
4.48369e-06 -3.04818e-05 -8.50575e-07
-4.62017e-06 3.07101e-05 -1.6253e-05
-3.67572e-05 -2.55758e-05 -4.70388e-05
-3.30261e-05 -0.000106543 -6.95141e-05
-0.000543379 -0.000479861 4.05541e-06
0.000843141 0.00233025 -0.00145054
-0.000390228 -0.000265795 -0.00159101
0.000991514 0.00110204 -0.000486324
0.00330424 0.00756829 0.0014797
-1.45931e-05 -4.20115e-05 -9.33013e-06
0.000715775 -0.000396056 9.25818e-05
0.000133211 0.00114139 -0.000520691
0.000904066 0.000335853 -0.00144915
0.000185349 -0.000100736 2.62018e-05
-0.000160563 0.00244551 -0.00185971
5.91838e-05 -9.09242e-06 1.00941e-06
-5.63238e-05 -3.69817e-05 3.54602e-05
1.60651e-06 1.17151e-05 -2.41021e-05
6.25468e-05 -5.28468e-05 1.82562e-05
6.19688e-05 -0.000227154 5.45941e-05
-0.00113524 0.000483595 -0.000689902
0.00581021 0.00318618 0.00693089
-0.00968989 0.0081238 0.000988166
-0.000484992 0.000133231 0.000448274
2.76746e-06 4.88536e-06 1.3201e-05
-1.79289e-05 -1.08712e-05 3.39609e-06
1.57295e-06 -2.97551e-06 3.30017e-06
-0.00173184 0.000459013 -0.000156872
5.45006e-06 -6.80558e-06 -5.45291e-06
-7.97975e-06 1.00211e-05 8.2047e-06
1.825e-05 3.3572e-05 1.10277e-05
0.000936165 9.20312e-05 0.000719307
-8.45763e-05 0.000167443 0.000256559
-0.000933383 0.000601018 -0.000229613
-4.21252e-05 2.59573e-05 9.62746e-06
-0.000344626 -0.000964969 0.000226138
-0.000487669 -0.000867368 0.000715358
0.000114079 -0.000308957 5.46879e-05
0.000152386 0.00011568 0.000101885
3.60989e-06 -9.30765e-05 -0.000104724
-2.50777e-05 -4.87946e-05 0.000160977
-9.91409e-05 4.0607e-05 -0.000111447
0.000183 -1.52879e-05 5.57815e-05
-0.000104958 0.000163601 6.17712e-05
-0.000127041 -3.95054e-05 0.000111924
0.000331308 -9.6303e-05 -4.6296e-05
-0.00296187 -0.00237835 -0.00049908
6.44054e-06 0.000107279 -8.51264e-05
0.000220298 -6.87306e-05 0.000162745
-0.000260473 0.000141385 7.74397e-05
-0.000137175 -9.53773e-05 0.000112301
-1.73188e-05 3.24285e-05 -8.29288e-07
-5.35037e-05 -5.23999e-05 -5.31225e-06
-2.50398e-05 -1.29599e-05 -5.86188e-05
-0.000131576 0.000439298 -4.71533e-05
3.75237e-05 -1.1947e-05 9.42375e-06
3.97368e-05 -0.000596905 0.000225878
0.000109155 1.61481e-06 -7.35043e-05
0.000181244 -0.000144532 0.000371821
5.76569e-05 -4.8329e-05 3.57194e-05
-5.6453e-05 -6.94855e-06 1.43473e-05
2.54307e-06 -8.74302e-07 -1.11956e-05
-0.000520137 0.000787551 0.000726181
8.93236e-05 0.00019422 -0.000405191
-0.00114179 0.00118498 -0.000947524
-6.15291e-05 8.18279e-06 -3.35284e-06
0.00016242 -0.000267874 -0.000179182
0.00108422 0.000549043 -0.000353108
-5.14488e-05 -0.000108606 5.0833e-05
-0.000102395 -6.19039e-05 0.000130568
-4.82891e-05 -3.85647e-05 3.70168e-05
0.000275239 -0.000124398 1.39365e-05
1.4747e-05 1.07563e-06 -3.15641e-05
-2.2598e-05 -4.05163e-05 7.71449e-06
1.65395e-05 1.18084e-05 1.7034e-05
9.5252e-06 -0.000182207 0.000155628
0.000507641 -0.00016443 -6.19272e-05
1.37433e-05 6.86581e-05 1.72952e-05
-0.00010567 3.30288e-05 8.10574e-05
-9.28866e-05 -8.3777e-05 1.31023e-05
2.48773e-05 -3.77903e-06 0.000116129
8.41965e-05 -7.74471e-05 -2.24987e-05
-3.2526e-05 -4.01525e-05 -2.04987e-05
-0.00149446 -0.000248329 -0.00355503
-0.000161882 -4.34302e-05 -0.000216933
0.000191935 0.000232082 0.00100179
2.1137e-05 -0.000195303 -0.000468159
0.00242092 0.00319796 0.00151373
-0.000103409 -2.08144e-05 0.000139669
0.000102309 -0.000101702 4.12549e-05
6.32068e-06 -2.18777e-05 1.47225e-05
0.000150508 0.000151004 0.000903199
0.000250743 0.00011341 0.000166375
-0.000749996 -0.00151353 0.000576247
-0.000103928 -3.69142e-05 -0.000196601
0.000958185 0.000137715 -0.000707026
-9.42968e-05 0.000109988 -1.15732e-05
0.00109024 0.000225736 -0.000277978
-0.000149887 2.06152e-06 7.99181e-05
0.000241171 0.000176406 -0.000310325
0.000114943 -0.00010527 5.79632e-05
3.46323e-05 -0.000654458 -0.000289389
-0.000104008 -0.000142965 -2.84522e-05
9.36266e-05 -6.69372e-05 7.67315e-05
3.11019e-05 -4.8755e-05 -4.56288e-05
-0.000122531 -4.52192e-05 1.22483e-05
-1.80575e-05 3.43961e-06 -9.01198e-06
-0.000195519 -0.000143121 0.000155237
-9.8102e-05 3.06285e-05 6.48116e-06
1.16995e-05 -9.83568e-07 -1.17751e-05
0.00105065 -0.000495593 0.000921606
4.23121e-05 -3.56619e-05 8.44314e-05
0.000926754 -0.00105276 0.00032302
1.18338e-06 -1.17458e-06 1.236e-07
-4.44461e-05 -2.90395e-05 7.03428e-05
4.16061e-05 4.06463e-05 4.23683e-06
-0.000210812 -0.000162895 0.000184977
-1.36394e-05 1.23257e-05 -1.10007e-05
-7.68598e-05 -6.07694e-05 2.67127e-05
-0.00221001 0.00153405 0.001286
0.000315072 -0.00017335 -0.000341525
4.14846e-05 0.000243089 4.83164e-05
-0.000442708 -0.000866365 -4.76728e-05
-9.43416e-05 0.000286879 3.7419e-05
0.000380693 -0.00018944 -5.63774e-05
0.000150371 -3.31112e-06 -9.08031e-05
1.31064e-05 -5.51171e-05 2.27299e-06
1.35156e-05 -7.50866e-05 -9.73161e-05
2.44146e-05 1.8576e-05 0.000262783
-0.000776425 0.000771591 0.000148176
-1.07344e-05 7.28443e-06 3.6997e-05
-0.000117912 7.28899e-06 5.17304e-05
-0.00138177 0.000257026 -0.000295216
-0.00255569 -0.00595809 7.77347e-05
-0.000103575 2.31087e-05 0.000192679
-6.81733e-05 -3.68454e-05 0.000230854
1.5686e-06 2.64043e-06 1.27764e-06
-0.000330493 -0.000343373 0.000743413
-0.000275377 0.00011607 2.58565e-05
1.91084e-05 -1.72075e-05 -1.64078e-06
5.78028e-05 -2.42468e-05 -2.10129e-05
-0.000238765 0.000329397 0.00054551
9.07963e-05 5.82922e-05 0.000435204
2.65781e-06 1.90278e-05 -8.01843e-05
3.14575e-06 -2.47476e-05 -1.15736e-05
-1.49487e-05 -1.18165e-07 -2.06905e-06
-3.54889e-06 9.75764e-06 1.77616e-06
6.87346e-05 -0.00040371 3.78995e-05
-6.114e-05 3.16115e-05 -2.47816e-05
-0.000130561 8.3482e-05 8.48079e-05
-7.31484e-07 -1.32672e-06 1.98721e-05
2.00801e-05 -3.68696e-05 2.52225e-05
-3.20807e-06 4.14757e-06 -3.01932e-08
-4.94372e-06 4.95215e-06 5.9263e-07
-1.31717e-05 2.26067e-05 -1.4499e-05
-1.39032e-05 -2.88017e-05 3.87253e-06
8.45772e-06 -3.35396e-06 7.54909e-06
-0.00013377 -3.16492e-05 -7.36891e-05
-9.65512e-07 7.8837e-06 -2.14528e-06
0.000148683 -0.00048042 3.09148e-05
-8.33292e-05 -7.49709e-06 -5.65616e-06
1.60478e-05 -1.66285e-05 8.48164e-06
4.00999e-05 6.77091e-06 -4.78589e-05
-1.26551e-05 -4.19288e-06 -2.39353e-05
-3.13385e-05 5.18905e-06 -1.55273e-05
3.25985e-05 2.9943e-05 -4.59306e-05
2.1769e-05 1.53409e-05 -6.96192e-06
-4.13707e-05 -4.11435e-05 -1.8336e-05
4.35095e-05 -0.00013608 -9.10369e-05
-1.19213e-05 1.33658e-05 1.41852e-05
-3.92243e-05 -4.80168e-05 1.53138e-06
-0.000460165 0.000203138 -0.000187959
6.74477e-05 -0.000211599 -0.000192065
-5.1702e-05 -4.41392e-05 -1.47132e-05
-1.67429e-06 -2.36356e-05 -7.06059e-06
-1.27249e-05 -1.53307e-05 -7.17875e-06
-8.62225e-05 0.000128011 5.66499e-05
-2.03886e-05 -1.66052e-05 -2.20719e-05
1.89081e-05 -8.27311e-06 -9.63529e-06
3.97452e-05 -5.18812e-06 -1.55755e-05
3.28042e-05 4.49827e-05 -5.74157e-05
5.82475e-06 0.000184698 9.07899e-05
-0.000133268 4.07204e-05 -0.000138588
6.66776e-06 -2.63932e-05 1.72777e-05
0.000124552 -0.000163829 1.36817e-05
-1.57133e-06 4.50246e-06 -9.42664e-06
-4.97709e-07 9.38818e-06 5.75883e-06
2.35772e-05 -3.78987e-05 1.53593e-05
-5.24372e-05 1.39645e-05 0.000106871
1.97889e-06 2.47462e-06 -1.34062e-05
4.85012e-05 0.000245082 5.23064e-05
-0.00012601 0.000127441 0.000112684
2.30733e-05 8.61827e-06 1.012e-05
0.000164003 -6.55408e-05 -0.000120948
-6.21543e-05 -2.41828e-06 -4.40211e-05
1.99074e-05 2.95688e-05 -6.44248e-05
4.76738e-05 0.000155283 7.26211e-05
-0.000149262 5.01969e-05 -5.63542e-05
2.47317e-05 1.01828e-05 1.80483e-05
-0.00023142 -2.5194e-05 9.13209e-05
-1.8222e-05 1.03234e-06 -6.06423e-06
2.14682e-05 2.50529e-05 -2.0768e-05
1.63014e-05 9.07963e-06 1.292e-05
-0.000870724 0.000426265 9.86486e-06
0.000580182 0.00047506 -0.000322657
-0.000271772 -0.000139248 -6.6444e-05
8.12653e-05 7.29682e-05 4.78403e-05
-0.000405278 -0.0014033 0.00213751
-0.000466641 0.000564891 0.000671821
1.48141e-05 1.52534e-05 1.86682e-05
0.000769159 0.00177023 0.0012822
-9.30183e-05 9.31777e-06 0.000118925
1.86849e-05 0.000316963 -3.98574e-05
-0.000122884 -0.000476329 0.00249363
-1.8301e-05 -1.95925e-05 2.66753e-05
-0.00105862 0.00129277 5.92925e-05
-4.88557e-05 -0.00188374 -0.00157209
-0.000483739 -6.53099e-05 -0.000391431
0.000405406 0.000631447 0.000564162
4.45788e-05 8.10542e-05 -7.38976e-05
5.28862e-05 4.79867e-05 4.01532e-05
-3.85504e-05 -4.48891e-06 -2.95573e-07
-3.57478e-06 4.84172e-06 1.99637e-06
-9.54642e-06 4.47052e-06 9.01723e-06
-4.11889e-05 3.83884e-05 -8.19969e-06
-0.000376419 8.25806e-05 -0.000241161
-0.000359908 7.93901e-05 0.000176143
1.26798e-05 3.97774e-05 3.08009e-06
0.000180144 -0.000210432 -0.000157512
9.36084e-05 -3.23625e-05 -1.45247e-05
0.000142147 0.000157515 -0.000586465
0.000395717 -7.04889e-05 -8.47807e-05
0.000559338 -8.2794e-05 -0.000422142
-0.000120507 0.000122117 9.35326e-07
0.000441331 0.00190156 -3.39544e-05
-0.000678909 0.00112925 0.00102659
-0.000255346 -0.000308433 -2.72697e-05
-0.000122446 0.00015905 2.46675e-05
2.64449e-05 -0.000117279 1.20889e-05
-8.38587e-06 -5.44024e-06 4.46452e-05
6.36147e-05 -2.08949e-05 1.61661e-05
-2.54329e-05 0.000337773 -8.50844e-05
-1.92698e-05 0.000246028 9.03066e-05
-9.59887e-05 -7.08712e-05 0.00022127
0.000418117 0.000653237 0.00015928
3.26501e-06 -2.74813e-05 5.82927e-06
0.000725325 -6.73626e-05 -4.99427e-05
5.91243e-05 -0.00010368 0.000275688
5.82402e-05 4.46124e-06 3.84822e-05
1.87537e-05 0.000165384 1.33177e-05
-0.00154736 -2.20927e-05 4.0215e-05
0.000104113 -1.87652e-05 -6.48771e-05
-0.00026871 -0.000189364 6.86714e-05
-0.000104214 -0.000311929 0.000333405
-3.11618e-06 -4.99783e-05 -4.6029e-05
-0.000199422 -0.000398484 -8.01565e-05
0.000898371 0.000722506 0.000253181
-5.62269e-05 5.00729e-05 -0.000215067
-4.29311e-05 0.00018718 9.42773e-05
-7.41951e-05 2.93296e-05 -3.5888e-05
2.19138e-06 -2.073e-05 -1.51834e-05
-0.00135428 -0.00296027 -0.000175075
-3.03461e-05 -7.32537e-07 5.40415e-05
-8.7093e-07 0.000270179 -2.05231e-05
0.000141745 -8.13005e-05 -9.1926e-05
2.45702e-05 2.12296e-05 -1.74605e-05
-0.000200958 -0.000303056 1.14443e-05
-1.69969e-05 -0.00135096 -0.000161834
-1.40916e-06 -1.49741e-06 -1.32834e-06
-0.00127994 0.000175686 -0.0016218
-0.00107594 -0.00122108 -0.000866192
0.00219227 -0.00154371 0.000180508
-0.000194895 -0.00013117 5.41398e-05
-0.000242184 0.000628795 -6.05065e-05
-0.00059623 -0.000123266 -0.000293157
-0.00139954 -0.00267502 -0.000887158
-2.19039e-05 -0.000385772 -8.28191e-05
-0.000509841 0.00030102 0.000365727
0.000396403 -0.000272275 0.000106271
-4.88462e-05 8.37739e-05 -1.41956e-06
-0.000146096 0.000312633 5.45283e-05
0.000205719 -0.000149602 0.000129203
0.00011434 -0.000375969 -3.18002e-05
-0.000192162 0.000427905 -0.000217428
-4.10282e-05 -4.82363e-05 -1.35496e-05
-5.74838e-06 -2.22836e-05 -1.16681e-06
0.000263168 0.000348704 0.000363317
-0.000200728 5.6703e-05 -0.000107667
0.000145551 -0.000737039 0.000393786
-0.000454514 -0.000439351 -0.000763701
0.000221387 -6.15689e-05 -3.65863e-05
-0.000279699 0.000109411 2.96062e-05
-3.85009e-06 -3.93874e-05 7.02858e-06
1.20808e-05 3.93619e-06 1.33359e-05
9.54006e-05 0.000118382 1.25198e-05
-2.22291e-06 -1.34007e-06 -8.81225e-06
-0.000113454 -0.000145141 8.79614e-05
-8.46053e-08 1.82401e-05 -5.50676e-06
1.3918e-05 3.85501e-05 2.22196e-05
0.00012344 -8.48228e-05 -3.0698e-05
8.41736e-05 -7.91702e-05 -7.51764e-05
-0.000121005 7.60262e-05 9.00523e-05
3.16333e-05 0.000139238 -5.02908e-05
1.13654e-05 1.5772e-05 2.18167e-05
0.00063229 0.000204528 2.88254e-05
0.00142411 -0.000421751 0.000875669
3.69496e-05 0.000580733 0.000276002
3.91256e-05 3.41036e-05 8.61517e-06
9.12493e-05 -3.25797e-05 5.09311e-05
-0.000172467 -6.06988e-05 0.000149941
1.40867e-05 9.2013e-05 -0.000190988
0.000790148 -0.000377134 -0.000100487
-1.63491e-06 7.51098e-06 5.48853e-06
0.000209418 -0.000180025 -0.000407523
1.76794e-05 -3.79469e-05 1.5131e-06
4.91267e-05 0.000122931 0.000136773
6.49358e-05 -9.08585e-09 3.86292e-05
1.47378e-05 -2.77886e-06 4.66995e-05
-0.0011194 0.000416663 -0.000256163
-3.65487e-06 -2.97898e-06 5.74743e-06
-2.12496e-06 5.41296e-06 7.31777e-06
0.000828253 0.000161991 -0.000170211
-8.56935e-05 -6.06045e-05 0.000110967
0.000152974 0.000410219 0.000519081
0.000123806 9.58319e-05 7.34634e-05
-7.16402e-05 -7.22878e-05 8.3582e-05
-8.32137e-05 -3.59159e-05 1.13551e-05
1.27839e-06 8.66495e-05 -8.34267e-05
-9.14216e-05 -0.000130204 -0.000222406
0.00056512 -2.1028e-07 0.00114753
0.000131677 0.000100953 -0.000186811
-3.53497e-05 2.3237e-05 -1.04765e-05
-0.000134242 -0.000251203 0.000308935
0.000161192 0.000154313 -0.000201988
0.000124864 -2.45045e-06 2.35761e-05
-0.000125101 5.14082e-05 -5.91209e-05
-3.47152e-05 -6.29258e-05 2.85301e-05
0.000241217 -0.00014336 0.000160942
-0.000182403 -0.000137803 7.19996e-05
7.21796e-06 -2.6495e-06 4.16251e-06
-9.60736e-07 1.67929e-06 8.1489e-05
-0.000139237 2.91288e-05 0.000222081
5.77807e-05 -5.43382e-07 -0.000235074
5.26715e-05 -3.95813e-05 -2.68201e-05
-2.21324e-06 7.9619e-06 5.91629e-06
1.05734e-05 -2.74387e-06 4.2004e-06
-0.00126863 0.0010179 0.000351985
-9.82077e-05 0.000177768 -0.000177849
-0.000177584 -0.000108116 -0.000311744
0.000397232 -0.00037078 0.000215289
-9.45243e-06 1.25213e-05 1.99816e-05
-8.62492e-06 -2.44298e-06 -1.508e-05
0.000370969 -2.99053e-05 0.000188072
0.00016586 0.000200392 3.40352e-05
-1.15542e-05 -2.22812e-06 -2.51545e-05
7.26026e-05 -0.000305593 0.000537365
8.3969e-07 -8.17863e-06 6.70109e-06
7.84055e-05 1.5493e-05 -5.33485e-05
-0.000241584 6.72244e-05 -7.86202e-05
-6.69764e-05 -4.98831e-05 5.16579e-05
1.11521e-05 1.05289e-05 7.28723e-06
2.00972e-05 -3.32393e-06 5.22852e-06
-0.000213956 5.96692e-05 -0.000156388
-9.38163e-05 0.00142965 -2.44789e-05
6.59778e-05 1.3723e-05 4.07045e-05
0.000128164 -0.000111855 6.37141e-05
-2.65541e-05 3.4431e-05 -1.08e-05
-1.01279e-05 5.09987e-05 5.60534e-06
0.000183057 0.000100777 6.86742e-05
-2.37298e-06 -3.20329e-05 8.36112e-06
-0.000375425 5.55931e-05 0.000402499
0.000135536 6.78838e-05 -6.52167e-06
0.000141494 4.00129e-05 -0.000167253
-0.000188653 8.38347e-05 1.71318e-05
-1.15031e-05 -0.000129335 0.000162345
3.35575e-06 -7.6577e-06 -1.07835e-05
-0.000119312 -0.000254874 6.25882e-05
0.000143729 -0.000143115 0.000403
4.9041e-05 -0.000213226 -0.000126679
-5.54878e-05 9.72299e-05 -7.49982e-05
1.51076e-05 -0.000104773 1.98801e-05
-0.000225334 -8.95497e-05 6.57613e-05
-9.10843e-06 6.76456e-06 3.53934e-05
0.000118131 9.10911e-05 6.17058e-05
-1.56087e-05 2.22541e-05 -3.13891e-05
7.86732e-05 9.36533e-05 -0.000141975
5.47971e-05 3.45203e-05 2.31726e-05
0.000394582 -0.000110468 -0.000137046
2.3259e-05 -4.31361e-05 -4.08388e-06
1.94899e-05 4.18272e-05 6.01637e-05
0.000489965 -0.000347376 -0.000450987
0.000859016 -5.64827e-05 9.32592e-05
-1.08741e-05 1.41434e-05 -3.0405e-05
2.28944e-05 -1.84832e-05 -3.2255e-05
-0.000271335 -0.000208777 -3.3698e-05
7.27946e-05 -6.09067e-06 -4.93447e-05
-6.51465e-05 -8.86142e-05 -2.79109e-05
1.45396e-05 4.05917e-06 4.8255e-06
9.23958e-07 -6.26216e-06 3.08818e-06
1.71467e-05 -5.52536e-06 3.70173e-06
-0.000433782 0.000322595 9.44932e-05
-0.000221897 0.000229981 -5.0019e-05
-8.47148e-05 -0.000150685 -2.72546e-05
-1.00227e-05 -1.76421e-05 4.59198e-05
3.64071e-06 -1.30595e-05 -1.98378e-07
2.11864e-06 -7.76896e-06 9.34377e-06
-8.18607e-06 -2.34906e-05 4.64926e-06
-0.000188314 1.91559e-05 -6.10073e-05
-3.62655e-09 1.82932e-05 -0.000262745
-5.83259e-06 -3.81592e-05 7.21994e-05
0.000213354 0.00013912 -0.00016013
-7.39512e-05 5.0707e-06 -4.54174e-05
5.80811e-06 1.13206e-05 -1.40529e-05
0.000238809 -0.000152111 1.28742e-05
2.07402e-05 -1.34597e-05 1.33382e-05
-3.13702e-05 3.45366e-06 -2.76022e-05
5.17841e-05 -6.21799e-05 -1.68431e-05
-0.000181247 -0.000235021 -4.25621e-05
-3.91469e-07 6.14486e-08 -1.29565e-07
-5.88011e-06 -3.07415e-05 -8.1165e-06
-3.43408e-06 4.42581e-06 0.000173627
-0.000114762 8.46397e-05 3.74223e-05
2.40986e-06 -1.57006e-05 1.4399e-05
-2.24701e-05 -2.23317e-05 -9.74549e-06
3.1294e-05 2.97075e-05 8.7886e-06
1.30918e-05 1.4174e-05 1.20445e-05
-1.0125e-05 -3.44141e-05 1.15923e-05
8.63892e-06 -1.84835e-06 1.52012e-05
3.55368e-05 1.9937e-05 -0.000106804
2.50635e-05 -0.000149072 -7.91761e-05
-6.18117e-05 4.2225e-06 -7.82788e-06
8.13525e-07 3.35319e-06 -3.01669e-07
-5.25279e-05 2.82195e-05 -0.000109069
-2.56939e-05 -3.68525e-05 1.74773e-06
-8.03793e-05 -9.76681e-05 -5.27099e-05
1.16843e-05 -3.29526e-06 1.45936e-05
0.000174044 -0.000199594 -7.90394e-06
-4.7567e-05 -5.0886e-05 1.85622e-05
1.14475e-05 -5.49201e-05 -0.000446717
7.7907e-05 6.10817e-05 -0.000171296
0.00022207 5.06822e-05 0.000123454
-2.54815e-07 -3.3553e-05 1.84699e-05
5.79614e-06 1.26528e-06 6.24644e-06
-3.8408e-05 -1.90257e-05 3.03039e-05
-7.57115e-05 -7.91085e-05 -0.000138495
-1.88565e-05 3.05345e-06 8.76885e-06
-3.9479e-06 1.27178e-05 4.86959e-05
3.93885e-05 -1.40214e-05 3.74912e-05
-1.29345e-05 -8.36913e-06 5.57657e-06
2.28986e-06 -3.23602e-06 1.03881e-06
-1.00354e-05 1.36284e-06 1.46009e-05
2.43226e-05 7.22257e-06 -8.75016e-06
2.76832e-05 2.25249e-05 -5.10076e-05
-1.46918e-05 -1.71897e-05 -1.80691e-05
-4.02091e-05 -1.38758e-05 4.8563e-05
-1.97697e-05 -3.27251e-07 3.02662e-06
3.94272e-05 -1.33567e-05 8.40245e-05
0.00011501 -5.73396e-05 -0.000150405
-3.91974e-06 3.79635e-06 3.21322e-06
4.83746e-06 -6.35167e-06 -2.30748e-05
2.74879e-05 2.76474e-05 -1.95505e-07
-1.22578e-05 2.38104e-05 -6.02213e-06
8.29804e-06 8.12106e-06 -1.27508e-08
3.4053e-05 3.45372e-05 -1.50638e-05
-6.84786e-05 -2.96856e-05 -0.00016517
-0.000157414 -0.000711381 -0.000432891
-0.000250828 -0.00103209 -7.53838e-05
-0.00174822 -0.00141196 0.000180262
-4.24498e-06 0.000506707 -0.000292677
-0.00159133 0.000286086 0.000872524
0.000110443 4.14941e-05 -0.00115642
0.00121597 -0.00176429 -0.00669609
0.00293832 0.00201656 0.000382148
8.27117e-05 -0.000164519 0.00101387
-0.00193308 0.00135228 -0.000243702
0.000105287 0.000255036 -0.000107738
-8.86894e-05 -1.51026e-05 2.7437e-05
-6.40539e-05 -7.78398e-05 3.18983e-05
3.05425e-05 5.15254e-05 -0.000115847
-1.8879e-05 3.57164e-05 -4.08084e-05
0.000213048 -0.000504863 -0.000728574
-0.000217537 -0.000258566 4.92083e-05
-1.18955e-05 -1.67033e-05 -8.32709e-06
-0.000100181 0.000104062 -2.12392e-05
3.3322e-05 -3.33773e-05 -1.0881e-05
0.000463293 0.000250453 -0.000229337
2.63588e-05 -2.58374e-05 -2.0865e-05
-0.00154144 -0.00181585 0.000591233
0.0002598 0.000308256 0.000434441
-1.95724e-05 -9.99346e-07 1.48733e-05
0.000207665 -0.000472908 0.000833032
-2.07917e-05 -6.25692e-05 1.08758e-05
-0.00100357 0.00220301 -0.000397131
1.85585e-05 -6.28549e-06 -5.09022e-05
0.00021826 0.000209548 0.000250966
9.17091e-05 -0.000190163 -7.96137e-06
-2.96025e-05 -2.98623e-05 -2.64289e-05
2.63755e-05 5.03875e-05 -2.60496e-05
0.000147343 0.000114157 1.50052e-05
4.0333e-06 -1.71193e-06 5.47913e-07
2.4777e-06 4.68813e-06 -1.08198e-05
9.24225e-05 0.000139672 0.000102014
-3.30008e-06 1.48634e-05 1.10627e-06
-2.96313e-05 -4.53033e-07 3.14831e-06
2.89181e-05 -3.62224e-05 2.39569e-05
1.60163e-05 -3.99483e-05 7.4209e-06
-5.87982e-05 6.04416e-05 3.07518e-07
-6.72426e-05 0.000180222 0.000150893
-1.45866e-05 4.43647e-05 -1.06537e-05
0.000105237 6.33947e-05 0.000168506
-0.000143284 -1.12176e-05 0.000245802
9.06061e-06 -4.0302e-06 5.00877e-05
0.00107811 0.00200954 0.0025423
0.000439014 0.000560342 0.000205025
-0.000764045 0.000668483 -0.000293796
2.31979e-05 -9.22299e-05 -4.5275e-05
5.38964e-05 0.000293351 0.000100668
-7.37293e-06 5.62483e-05 5.8817e-06
-1.79781e-05 -1.49676e-06 2.74567e-05
1.35034e-05 4.13221e-06 -7.52374e-06
-9.90802e-05 0.000128035 9.09181e-05
2.64013e-05 3.87551e-05 -2.62712e-05
0.000605716 -0.00327762 0.000123734
0.000176536 -4.97125e-05 3.5541e-05
-0.00036175 7.27436e-05 6.45419e-05
-0.000364833 -0.000997185 8.05082e-05
0.000776234 0.000724533 0.000360001
-0.000194101 0.000144774 -0.000220355
-4.3104e-05 6.89202e-05 2.63891e-05
1.61627e-05 -1.25881e-05 4.57689e-06
-0.000226752 0.000277236 6.85622e-05
-0.00086318 -0.00106185 0.000871697
0.000330565 6.65402e-05 -0.000141091
0.00028429 0.00053876 -4.24395e-05
-7.0499e-05 -0.000161818 4.70583e-05
-8.3695e-06 -2.27081e-05 -8.17999e-06
-3.03814e-06 -1.12612e-05 -2.37968e-06
-0.000319204 -0.000183441 -3.30929e-05
0.000667674 0.00046073 -5.68221e-05
-1.79044e-05 0.000187974 -4.63296e-05
-0.000103443 4.9237e-05 1.30915e-06
-0.000111307 -0.000244455 0.000125048
0.00048557 0.000999223 0.00285465
-0.0001545 0.000388141 -2.87776e-06
5.39333e-05 1.0203e-05 0.000141871
9.9127e-05 0.000396779 0.000450429
-7.14202e-05 -6.94719e-05 1.01049e-07
8.82927e-05 -5.03717e-05 -3.10274e-05
-3.05333e-06 -4.51833e-06 -5.8054e-06
2.17192e-05 1.05481e-05 -2.3346e-05
3.44381e-05 3.94816e-05 2.06629e-06
8.06144e-06 1.01218e-05 -8.74449e-06
1.15733e-05 -1.74093e-06 -1.27111e-05
3.02598e-06 -5.09215e-06 1.07318e-05
1.12184e-05 -2.86243e-05 3.60009e-05
1.40846e-05 1.56119e-05 6.26146e-06
-1.54711e-05 2.56153e-05 -1.3024e-05
-6.73583e-06 -2.12462e-05 0.000114712
-0.00021424 0.000108693 0.000157343
-9.4707e-05 0.000459549 -0.000133327
-0.000295879 0.00026284 0.000119163
2.79918e-05 4.17255e-05 -0.000411942
1.16602e-05 3.48178e-06 -1.07408e-05
-3.30199e-05 5.74957e-05 6.1081e-06
-6.65547e-05 1.85237e-05 0.000108942
0.00230757 0.000198984 0.000823435
0.00453646 -0.00329082 -0.00391971
-5.15502e-06 1.01078e-05 3.12316e-06
0.000378823 0.000585214 -2.58845e-05
2.25877e-05 -7.26484e-06 4.35704e-05
1.92093e-05 1.93032e-05 -1.35674e-06
-0.00102125 -5.81046e-05 -0.000250392
6.01486e-06 6.38406e-05 -0.000142452
-3.98787e-05 -3.3189e-06 1.35706e-05
5.52321e-05 2.84456e-05 6.18861e-05
2.47738e-06 -1.07867e-05 -2.34544e-05
3.53494e-06 1.04601e-05 -2.34845e-05
6.1803e-06 1.57983e-06 -6.19091e-05
-4.24134e-05 3.9845e-07 -3.89062e-05
-0.000293855 -0.000147546 -6.17225e-05
4.47807e-05 6.06963e-05 7.23139e-05
7.65953e-06 -6.03032e-06 -2.29844e-06
9.97496e-05 7.28422e-05 9.4484e-05
-1.21297e-06 -0.000151481 1.12735e-05
-0.000436984 0.000239066 0.000372934
1.22554e-05 6.61025e-05 -8.23312e-05
1.18626e-05 3.36245e-05 6.32165e-06
-6.90553e-05 3.40373e-05 4.34562e-06
8.83305e-05 1.08523e-05 -5.91361e-05
0.000389 0.000250554 -6.05563e-05
-8.86214e-06 8.69195e-05 6.22305e-05
-0.000130064 4.99007e-06 8.58642e-06
4.6271e-05 -2.12949e-05 -5.06092e-05
-8.52053e-05 -3.92399e-05 -6.14545e-05
1.64094e-05 3.82401e-05 2.35018e-05
2.84999e-05 0.000176179 7.36852e-05
-0.000131171 4.17688e-05 -0.000129936
0.000278299 0.000166043 -0.000485036
-0.000108227 -2.33331e-05 5.79655e-05
-3.54838e-06 -9.88291e-06 -2.34524e-06
-0.000229064 -0.000263632 0.000440851
2.98485e-05 -2.9724e-05 -4.45942e-07
-1.40472e-05 -4.44547e-05 3.8336e-05
-3.69336e-06 2.41954e-05 -4.19775e-06
-0.000701171 0.000629215 0.000302526
-9.71819e-07 -8.25841e-06 -1.1749e-05
-0.000671963 -2.15565e-05 -0.00039429
-6.93087e-05 -6.94488e-05 -2.31169e-05
-0.000212972 0.000130584 0.000102275
-3.15814e-07 -1.42764e-05 -6.3282e-07
4.34324e-06 -6.19017e-06 4.57096e-06
-3.70313e-07 -8.20418e-06 5.20173e-06
-2.10954e-05 6.56016e-05 -2.40642e-05
-0.000114775 -5.05095e-05 1.71758e-05
-4.35654e-05 -5.81341e-05 -3.12153e-06
3.41428e-05 8.74005e-05 -4.62524e-06
8.13765e-05 -0.000170444 -0.000332301
1.59195e-05 -4.44927e-06 0.000129839
3.43429e-05 -0.000144969 7.4145e-05
-5.06432e-05 0.000146815 -0.000114369
-5.4933e-05 -0.000171253 -0.000139512
-1.09196e-05 1.24765e-05 1.87299e-07
-2.50859e-05 -8.58391e-07 1.73321e-05
-0.000148948 -7.67322e-05 6.56925e-05
0.000224237 0.000106436 4.38253e-05
1.02535e-05 -1.37115e-05 6.14714e-05
-0.000444595 -0.000825492 -1.63093e-05
0.000276692 -1.46769e-05 -5.74305e-05
8.88657e-06 2.02844e-05 -1.83851e-05
-3.75633e-05 9.07735e-05 0.000236601
0.000684418 0.000401331 -0.000976958
-0.000112761 0.000288387 -4.61963e-05
0.000685862 0.00270547 -0.0011615
-0.000952554 -0.000216743 0.000153841
-8.39178e-05 0.000221023 -0.000173716
0.00010486 5.17413e-05 -2.5962e-05
9.67546e-06 -4.13805e-06 6.36016e-06
5.39918e-05 1.92524e-05 -2.32451e-05
-7.11977e-05 5.37924e-05 -1.82073e-05
7.69385e-05 4.57323e-05 0.000119051
-0.000146107 -0.000307448 -0.000528567
0.000954881 -0.00189719 0.00173234
-0.000452647 -6.43144e-05 -0.000494903
2.31605e-05 6.302e-06 3.35015e-05
7.04553e-05 4.87039e-05 -0.000103832
-5.04018e-05 -8.41548e-06 1.23524e-07
-2.75154e-06 -3.46172e-06 -2.78727e-06
-9.60498e-05 9.77182e-05 -3.66771e-05
-4.23735e-06 1.69304e-05 -1.85726e-05
-0.000187629 0.000575746 0.000594143
-0.000966895 0.000241684 -0.000306846
0.0003543 4.68968e-05 0.000287354