<?xml version="1.0"?>
<VTKFile type="UnstructuredGrid" version="0.1" byte_order="LittleEndian" compressor="vtkZLibDataCompressor">
 <UnstructuredGrid GhostLevel="0">
  <Piece NumberOfPoints="1046" NumberOfCells="1046">
   <PointData>
    <DataArray type="Float64" Name="Elongation" NumberOfComponents="3"/>
-1.80942e-05 -2.17417e-05 5.77022e-07
-2.01825e-05 -2.46409e-05 -1.29279e-05
-9.0128e-05 8.31413e-05 0.000927554
0.00189975 0.00129825 0.00116887
1.24203e-05 0.00014774 -0.000348088
1.73609e-05 1.48777e-05 -7.8899e-06
0.00280009 0.00467961 -0.000565201
0.00477015 0.0028759 0.000859244
1.32911e-05 3.27845e-06 -3.51145e-05
-2.64733e-05 -4.29331e-05 4.7798e-06
-4.59092e-05 -7.83097e-05 5.99245e-07
-0.0016118 -0.00240208 -0.000754512
0.000345955 0.000192881 1.86403e-05
-6.27267e-05 -5.07906e-05 -0.000120227
-4.22487e-05 -7.48883e-05 4.80941e-06
-3.69281e-05 -6.35464e-05 6.04409e-07
8.32014e-06 4.30057e-06 -3.4588e-06
7.5958e-05 0.000106247 -0.000401596
-0.00174444 -0.00182327 0.000177073
3.64137e-05 3.08369e-05 -3.25853e-05
0.00194692 0.00278191 -0.000146271
-2.59468e-06 7.24844e-08 -1.72701e-05
-0.000650147 -0.00105251 -4.49257e-05
-4.40276e-05 -3.30003e-05 -0.000272053
-4.66321e-06 -6.32759e-06 -3.29614e-06
-0.00136621 -0.00162987 0.00064224
-0.00177023 -0.00198045 0.000183096
-5.16466e-05 -1.66242e-05 0.000102437
-0.000132638 -0.000115132 7.94956e-05
-0.00111406 -0.00130191 -2.38603e-05
-5.09164e-05 1.82651e-06 -0.00014936
-0.000982695 -0.00144638 0.000565219
-0.000140612 -9.35707e-05 -0.000326944
-0.000533071 -0.000573213 -0.000128078
-0.000498887 -0.000574817 -1.34369e-05
-0.00109192 -0.00125753 -2.33958e-05
0.000177646 0.000185149 -7.15557e-05
-8.61066e-05 -0.00017169 -6.54117e-05
0.00016503 -0.000159247 0.000114197
0.000603435 -0.000402227 -0.000335464
-0.00623913 -0.00418782 0.0697035
6.11677e-05 -4.48129e-05 -7.77839e-05
-1.09227e-05 4.46353e-06 2.53926e-05
-2.49059e-05 -6.21228e-05 0.000334837
0.000104551 -8.83451e-05 1.59223e-06
-7.83971e-05 9.3683e-05 4.17815e-05
-0.000121381 0.000182729 -2.99726e-05
2.52278e-06 -5.72315e-06 4.90873e-06
-0.000415878 -0.000181943 0.00065068
1.20728e-05 -0.00172787 -0.00250564
3.55373e-05 -7.25368e-05 -4.32728e-05
0.0033951 0.00348987 -0.00591311
0.000207187 -0.000312931 -0.000422253
0.000637089 0.000266905 -0.000430932
3.04535e-06 -6.68332e-06 -5.41918e-06
0.00198803 0.00245139 -0.00178306
-0.0031536 0.00273106 -0.00351787
1.55553e-05 -1.09979e-05 1.4039e-05
7.43475e-07 -1.26236e-06 1.48713e-06
7.91058e-05 -7.42417e-05 -5.89834e-07
-0.000188942 0.00026713 4.07739e-05
0.000237553 -0.000298445 -4.6709e-05
5.69097e-05 -7.1621e-05 2.23094e-06
-4.78819e-05 7.33539e-05 -1.54637e-05
4.84895e-06 -6.61849e-06 -7.05279e-07
0.00013713 -0.000165092 -0.000332083
-8.30554e-06 1.17629e-05 -3.84923e-06
-2.95031e-05 1.49137e-05 -6.14633e-05
-3.13874e-05 2.85701e-05 -2.7375e-06
9.07051e-06 -1.19828e-05 -1.73012e-06
-5.70678e-06 1.03666e-05 6.4837e-06
-3.95651e-05 5.45736e-05 -4.49528e-06
0.000796286 0.000942661 -4.56712e-05
-2.7588e-05 2.84551e-05 -3.68783e-06
-8.50503e-06 9.45252e-06 4.2087e-06
-7.91462e-05 0.000104433 -1.589e-05
-5.15206e-06 1.38452e-06 1.20855e-05
-2.92032e-05 -5.34077e-05 -4.63151e-05
-0.00229021 0.00415639 0.00293768
-8.61647e-05 5.21986e-05 4.61144e-05
8.6431e-05 -0.000114673 -9.50748e-05
0.000487694 -0.000366077 3.63844e-05
-0.00196896 0.00133135 -0.000205362
0.000438463 -0.00035234 -0.000236553
-3.37549e-05 -3.93929e-05 1.83002e-06
0.00200716 -0.00247341 -0.00204666
6.86248e-06 4.54153e-06 3.12739e-05
1.19942e-06 6.4825e-06 2.10115e-05
8.73047e-05 -0.000114504 -1.76508e-05
-4.01593e-06 4.02305e-06 1.86552e-06
5.75005e-06 1.26964e-05 8.38685e-06
0.000843707 -0.000762269 -7.27252e-05
2.45156e-05 -3.74316e-05 -8.52894e-06
-2.86409e-06 5.40535e-06 -1.06565e-06
3.20708e-06 -4.40141e-08 -7.55789e-06
-2.39997e-06 3.26028e-07 -6.292e-06
2.4754e-05 1.99965e-05 0.000164658
-0.00285391 0.001734 0.000162347
-0.000929798 0.000848388 -0.000173304
0.00247119 -0.00123901 0.00305516
-2.7629e-05 3.61326e-05 -2.74762e-05
3.34207e-05 0.000444582 0.00120679
2.56594e-05 -4.27357e-05 1.7068e-06
-2.06529e-05 3.60548e-05 1.94148e-06
-2.49582e-05 2.78095e-05 -4.72564e-06
-5.56618e-05 3.56182e-05 -3.56123e-05
7.1197e-06 -5.86847e-06 -7.69694e-07
8.97674e-06 8.68666e-05 -5.41163e-06
-0.000397821 -0.00213883 -0.000305436
-4.38541e-06 6.28605e-05 3.80022e-05
0.00195092 0.00143645 -0.00198938
-2.23045e-07 -2.92751e-07 8.00598e-07
-5.62061e-06 -4.17319e-06 -2.09071e-05
0.000125421 -0.000781477 0.00038716
-4.84961e-06 1.11709e-05 1.43577e-05
2.26469e-05 2.87181e-05 9.83618e-05
-8.37411e-06 -4.99838e-06 -3.33929e-05
0.000984814 0.000638839 0.000483393
-0.00041452 -0.000333129 0.000105233
6.52927e-06 -2.27584e-05 5.79269e-06
-8.56141e-06 -8.87544e-06 1.00868e-06
2.59417e-05 -6.46309e-06 1.85158e-05
-0.0007338 -8.91093e-05 -9.98332e-05
-0.000533778 0.000202478 -0.000243581
-1.02188e-05 -5.90315e-06 1.4193e-05
-0.000271745 -9.85714e-07 0.000662842
7.71859e-05 9.83538e-05 7.07676e-05
-4.47981e-05 0.000103463 0.000352149
-3.76106e-05 5.41367e-05 2.08119e-05
3.32529e-05 -1.47039e-06 7.42804e-06
6.19112e-05 0.000118779 -3.14312e-05
-0.000788729 0.000455238 0.00116052
-1.9984e-05 -7.50873e-05 0.0010915
4.81191e-05 -0.00026756 0.000111645
2.25455e-05 0.000296878 0.0024937
0.000279183 1.84348e-05 0.000452291
-0.000809883 0.000857055 -0.00750556
0.000126593 6.08815e-05 0.000516918
-0.000172922 -0.000316455 0.000276239
-5.81613e-05 -1.41672e-05 -1.49042e-05
4.54583e-05 0.000226582 0.000357112
5.04164e-05 -3.25357e-05 2.19445e-05
-1.46573e-05 -1.19171e-05 -1.43735e-05
6.18855e-07 -5.92472e-07 -8.31061e-05
-8.23751e-05 -1.6914e-05 0.0001194
-1.34242e-05 7.47569e-07 8.80592e-06
-7.83097e-05 -0.000150318 -0.00124696
-0.000184535 -6.96983e-05 -4.58105e-05
3.54783e-05 5.13572e-05 7.07987e-05
3.11855e-05 0.000156849 -9.37905e-05
2.48096e-05 -1.37065e-05 -2.42122e-05
-4.36714e-05 1.22555e-05 -2.39014e-05
2.54989e-06 3.23719e-06 -2.27272e-06
0.000140611 1.0873e-05 -9.63876e-05
0.000353536 0.000245056 0.000622661
0.000677067 -0.00168862 -0.000903654
-5.87836e-05 0.000866402 0.000435156
0.00386723 -0.00145102 0.00245912
-0.000142484 0.000192125 -0.000235859
5.9531e-05 4.4361e-05 -8.41557e-05
-0.000445396 -0.000140899 -0.000113027
-1.07406e-05 1.354e-05 -4.30146e-06
-0.000118258 -6.35916e-05 0.000113943
-0.00149132 0.000459239 0.000376025
3.94165e-05 9.45785e-05 -4.40141e-05
-0.00181637 0.000307901 0.000705575
0.000633723 -0.00157324 0.00264881
0.00244084 -0.00369803 0.00168623
0.000894961 -0.00151837 -0.000135505
2.79421e-05 3.81069e-06 -0.000140932
-0.000747125 0.0016229 -0.000723928
-0.000440643 0.00221081 0.000268205
-1.38333e-05 9.32013e-06 1.34819e-05
8.99248e-05 4.35877e-05 -1.27321e-05
0.000728829 -1.41055e-05 -0.000720954
0.000613705 -0.000942294 -0.000884643
-1.65329e-06 9.19781e-06 8.70983e-07
1.79377e-05 2.73096e-05 2.14431e-06
1.69023e-05 1.91244e-05 3.05353e-05
-9.99591e-06 -2.09942e-05 -7.24085e-08
-9.22771e-05 -1.43437e-05 0.000143084
0.000478795 -7.35261e-05 0.00021166
-2.42514e-05 -5.71606e-06 -4.45516e-05
-2.42887e-05 0.000170331 -1.89953e-05
0.000471707 0.000278329 0.000983089
-0.000170002 8.21521e-05 -0.000311742
-0.000104171 -0.000388287 9.32801e-05
-4.32157e-05 0.000276954 0.000138306
0.000191183 -0.000172722 1.58525e-05
0.00025328 0.000342308 0.000196324
1.45398e-05 -0.000566417 -0.00011844
0.000614803 0.00189769 0.000854444
-0.000328132 -0.000474863 -2.05636e-05
7.00712e-05 -5.78305e-05 -4.82131e-05
-0.000426826 -0.000677765 0.000638823
-2.41272e-05 0.000212717 7.09557e-05
-9.53207e-06 8.00853e-05 -0.000275246
-1.67354e-05 -3.27495e-05 9.1613e-06
-2.69657e-05 2.62118e-05 -1.90119e-05
-4.73802e-05 -4.64354e-05 -5.05906e-06
2.46287e-05 3.12873e-05 -2.96322e-05
-2.04936e-05 5.76263e-05 -6.45614e-05
4.0328e-06 4.14617e-06 8.40414e-05
3.29981e-05 1.09953e-05 7.03979e-06
-0.000383736 -1.32602e-06 0.000114678
-1.02056e-06 -2.15377e-05 8.28069e-06
0.000681868 -0.000217657 9.68019e-05
0.00233294 0.00350947 -0.00304449
0.000763278 0.00328966 -0.00188235
-0.000338729 0.00112214 4.96587e-05
0.00023854 0.000541732 0.000876588
-1.27118e-05 3.77025e-07 -3.52271e-05
3.92782e-05 -5.40818e-05 -4.28156e-05
-1.29283e-05 -1.49078e-07 1.55845e-05
-3.9073e-05 7.35765e-05 -0.00010562
-9.82269e-05 -5.09873e-05 4.07737e-05
-7.10561e-06 2.29464e-07 1.17113e-06
-1.54667e-05 -6.07028e-05 -1.1948e-05
0.000563126 0.000121193 -0.00233989
-3.34267e-05 -2.06928e-05 1.11495e-06
-5.82478e-05 0.000213997 0.000135443
-0.000187644 -0.000290977 -0.0025566
-0.000425448 -0.000164281 0.000159366
-0.000392676 -0.00183302 -0.000974694
-0.00113969 -0.00204532 -0.00165379
-0.00238668 -0.00064835 0.00131561
-0.000156259 -2.70371e-06 -4.53442e-05
2.36084e-05 -1.02825e-05 -0.000105657
0.000792312 9.14035e-05 0.000697301
-2.26603e-06 7.83481e-07 -1.47754e-06
-0.0014941 0.000258941 -0.000413794
9.33921e-06 0.000110344 -7.08302e-05
-0.000191019 6.01898e-05 0.00014416
-0.000177318 0.000161344 -0.00063021
-0.000767914 -0.000973603 -0.00141208
0.000309726 -0.000183044 0.00040415
-0.000419986 0.000348921 -3.19716e-05
-0.000607452 0.000131088 -0.000228875
-4.03726e-05 0.000182718 0.00029979
-0.00147306 0.00142783 -0.000601263
-0.000151953 -0.000173889 -5.93105e-05
0.000397162 0.000162795 0.000203369
-0.000401073 -2.10795e-05 -7.24202e-06
-2.33996e-05 4.06203e-05 2.90965e-05
-6.72526e-05 3.5921e-05 -0.000114266
-2.1825e-05 -2.25336e-05 5.08327e-05
0.000362158 -0.000263194 7.90557e-05
0.000114325 -0.000110633 -9.79931e-05
8.2695e-05 8.25953e-05 -5.61995e-05
-1.08374e-06 -2.99791e-05 -3.7957e-05
-0.000127322 0.000148996 -4.23028e-05
-2.76915e-05 0.00026043 0.000267243
9.8006e-05 8.46725e-05 0.000191687
1.10272e-05 -1.10214e-05 -9.05243e-06
7.69447e-06 2.42127e-05 5.2076e-06
0.000337906 0.00043231 -0.000204353
-0.000511088 -0.000514102 7.82946e-05
-8.85667e-05 -3.98747e-05 -0.000229928
0.00035724 -6.70963e-05 0.000223931
-0.000272585 -0.0001353 0.000130596
-6.03704e-05 -6.16335e-05 -4.67885e-05
-0.00159759 0.00120481 0.00212765
0.000469233 1.55057e-05 -0.000125118
5.75984e-05 0.000304575 0.000156608
-0.000332631 -0.000395032 -0.00027842
-8.09703e-05 0.000295912 1.33644e-05
0.000167208 0.000160343 -0.000454079
-0.000421212 -0.000181691 -0.000186418
0.0012366 -0.000105274 -4.19117e-05
0.000571514 -0.00057495 0.0001888
-0.000260672 7.80047e-05 8.31954e-05
0.00288493 -0.00293902 0.0013408
-6.82879e-05 5.54425e-05 0.000249068
-0.00032318 0.000378161 -6.15519e-07
0.000216798 -0.000212187 -0.000856253
-0.000104546 0.000196248 0.0018937
-2.27044e-05 0.000117057 -6.40848e-05
-0.000153787 -5.6582e-05 -0.000181447
6.55731e-05 6.25945e-05 4.28329e-05
3.11808e-05 4.88474e-05 1.33773e-05
0.00232463 0.00171105 -3.57292e-06
-0.00201651 0.000924528 0.00177585
9.22389e-05 -1.20375e-05 1.45281e-05
-1.94888e-05 1.06283e-05 7.42633e-06
0.00027598 -7.02022e-05 -0.0023688
-1.50663e-05 -3.02665e-05 5.54864e-05
1.44684e-06 1.34186e-06 7.04641e-06
-1.02721e-05 4.26127e-07 5.06649e-06
1.6242e-06 -4.50527e-06 -2.09496e-06
-1.84613e-05 8.16905e-06 -9.38467e-06
-6.4994e-06 2.77046e-06 6.56608e-06
-5.23335e-05 3.81229e-05 6.09002e-05
-9.57184e-05 -0.000159914 -0.000216391
-0.000113787 0.000185805 -5.85834e-05
0.000437799 -0.000658016 -0.000223166
0.000627017 -0.000305977 -0.00024449
0.000154025 0.000278012 -0.000112214
6.23606e-06 1.45399e-05 2.47031e-05
5.33898e-05 2.02459e-05 1.70428e-05
3.9733e-05 7.14312e-05 -3.75403e-05
-1.21916e-06 4.03049e-06 -3.37873e-06
-0.0002121 0.000554465 -2.01817e-05
2.64457e-05 1.72271e-05 9.14719e-06
6.89033e-05 9.34443e-06 -6.62263e-06
5.7929e-05 1.41874e-05 -3.66738e-05
2.82792e-07 -6.94559e-07 -6.81112e-06
-1.85612e-05 -6.01487e-05 5.62341e-05
-3.57406e-05 -2.57182e-05 3.21769e-07
-2.12441e-06 -3.74015e-06 -1.50584e-06
-0.000102119 -0.000113322 1.43082e-06
-3.0942e-05 3.48062e-05 4.02314e-05
4.91181e-05 1.71616e-05 0.000105838
-1.16156e-05 -3.17002e-05 5.62015e-06
0.000134677 7.79677e-05 -2.08216e-06
5.83167e-06 1.04725e-06 -9.15066e-06
-1.53869e-05 9.3502e-06 -1.43544e-05
-1.06929e-05 2.66481e-06 6.84077e-06
-6.75296e-06 -4.04527e-06 -5.05287e-06
-2.94142e-05 8.17093e-06 8.53615e-07
-0.000119325 -8.38418e-05 -0.000153634
0.00029529 0.000201622 1.07572e-06
0.000345402 0.00042909 -0.00035244
-0.000390139 -0.00103831 -0.00078924
-0.000122283 -0.000225296 -0.000452188
0.000252233 5.27154e-05 -0.000189777
-0.000203047 0.000246525 0.000315319
3.94924e-06 -1.03909e-05 9.2558e-06
-0.000267895 0.000110195 9.54538e-05
0.000395405 -0.000260867 0.000243856
-2.07231e-05 -1.96361e-05 -2.61276e-05
-0.000269693 -8.52228e-05 -1.20048e-06
-0.000873081 -0.000369364 -0.000506061
1.69298e-05 1.19115e-05 1.27122e-05
-1.30372e-06 6.00298e-06 -1.02844e-05
-4.97975e-05 -9.35595e-05 4.37177e-05
2.48914e-05 1.79855e-05 -1.96302e-05
0.000235618 -5.54606e-05 -8.24334e-05
1.96603e-06 -8.06634e-06 -7.14404e-06
0.000128187 0.000155569 6.32597e-05
-7.12272e-05 -5.97829e-05 -3.99123e-05
4.49781e-06 5.38311e-06 8.74992e-06
-3.0562e-06 -8.5296e-06 2.91978e-06
0.000244653 0.00029553 -0.000449244
-0.000133873 0.000183555 0.000589078
0.000306317 -0.000328996 0.000394014
-1.70381e-05 1.07985e-05 -2.88955e-08
1.85716e-05 -6.70672e-06 -6.91785e-06
-6.37528e-06 -2.06702e-05 -2.50373e-06
6.63133e-05 -5.91316e-06 -2.98903e-06
-0.000103289 7.99245e-05 8.56577e-07
-1.24959e-07 -7.35038e-06 -2.57032e-05
4.66782e-05 -5.52692e-05 4.7499e-05
-0.000244663 -0.000295045 0.00045533
5.02074e-05 -0.000266505 0.000400089
-0.00386764 0.00476538 0.00380646
0.0013326 0.00133381 -0.000295999
-0.000156933 0.000100441 -5.64764e-05
-0.00020051 -0.00012615 -0.000215137
-0.000390154 -1.77721e-05 -0.000107475
5.83283e-05 -0.000312612 -0.000977721
-2.14057e-05 3.0871e-05 -7.67422e-05
2.80831e-05 2.82344e-05 -4.46822e-06
8.15987e-05 -0.000187548 0.00053455
-0.000232659 -0.000335697 -3.58934e-05
-0.00011645 3.8857e-05 6.9113e-05
-0.000331262 0.000266254 0.000110134
-4.54392e-05 -4.41812e-05 -1.31333e-05
-0.000506569 -0.000341401 0.000534651
0.000263489 0.000618287 0.000573866
-1.25515e-06 1.1691e-05 -1.04809e-05
-2.43366e-05 2.72736e-05 -0.000121422
2.63675e-05 -7.33969e-05 -7.03798e-05
1.51726e-05 4.56828e-05 -5.91875e-05
-6.43004e-06 4.02838e-06 -2.11659e-05
-0.000158463 3.88176e-05 -9.83383e-06
-0.00213466 0.00213632 -0.00203538
3.16259e-06 6.65057e-05 -0.000131639
0.000294554 -0.000340142 1.67951e-07
-9.7995e-05 -0.000287165 -0.000432526
-0.000263737 -0.000163411 -0.000234401
-0.000556219 0.00094929 0.000628736
0.000960246 -0.000451652 -9.70622e-05
0.000472394 0.00170692 -0.000821492
-0.00130309 0.0011647 0.00217083
0.000217062 8.18638e-05 -0.000110175
7.57272e-05 -2.80609e-05 5.50503e-06
2.7488e-05 2.48529e-05 -4.18561e-05
0.000430626 -0.000242836 0.000418586
6.21339e-05 -6.38523e-05 0.000109713
0.00027053 -0.000401431 3.19475e-05
9.52647e-05 0.000628193 0.000145523
0.000345919 -0.000502129 -0.000271568
-5.7743e-05 -1.93291e-05 2.40409e-05
-2.26595e-05 3.49287e-05 -2.02812e-05
0.000167743 -4.89234e-05 2.98687e-05
0.000101833 -6.4712e-05 -4.81997e-05
-8.29836e-06 3.87951e-06 6.87353e-06
0.00158428 -0.00113279 -0.000416109
0.000588708 0.000209239 0.000308672
0.00371728 0.00221466 0.00109757
-0.00071591 0.00259653 0.0036958
0.00366217 0.00253528 0.000355606
-0.000234545 0.000299284 -5.97494e-05
0.000227141 -0.000205505 -6.72751e-05
-0.00148906 0.000366885 0.000442975
-4.18626e-05 0.000932638 -0.00028258
2.62592e-05 -3.2425e-05 3.1023e-05
0.000343358 -1.3507e-05 -6.19374e-05
0.000495621 -9.85428e-05 -0.000201876
0.000370143 0.00190243 -0.00067591
0.00111192 -0.000817526 0.00079931
-0.000260657 0.000207914 -7.08257e-07
0.000209806 0.000105394 -0.000128429
-6.12715e-05 -0.000123297 0.00014203
1.4283e-05 1.40075e-05 9.64941e-06
1.77502e-05 -5.67907e-05 2.09808e-05
-1.38561e-05 -1.32342e-05 2.16495e-06
-0.00218748 0.00220792 -0.00144716
-0.000996465 -0.000503842 -0.00262564
0.000431577 -0.00221596 0.00145734
-0.00113966 -0.000989168 -0.00186962
-0.00174263 -0.00145869 -0.00190986
0.000301224 0.000127567 -0.000673984
7.66304e-05 0.000137251 0.000156684
1.99708e-06 -1.2038e-06 -6.36485e-08
-0.00057819 0.00356288 -0.00189821
-1.57411e-06 -6.57696e-06 -1.713e-06
0.000555243 -0.00144609 0.00100292
0.00046055 0.000371745 -0.000266218
-0.000260578 -0.000292579 0.000529286
-0.000154566 7.22775e-05 2.75095e-05
0.000119095 0.000126797 -0.00025375
0.000422876 -0.000245833 -0.00150545
0.00022543 -0.000371003 -0.000482642
-7.16429e-05 2.68516e-06 -3.92093e-05
-0.00166448 -0.000631341 -0.000741599
5.89077e-05 6.00596e-05 -3.17525e-05
-2.16562e-05 -3.96074e-05 2.07503e-05
4.55149e-06 -0.000119746 8.38125e-05
-0.000156881 -0.000410091 0.000254432
1.70193e-05 -5.33601e-05 -5.63051e-05
1.35413e-05 9.80073e-07 -1.4348e-05
-4.76469e-05 -7.05994e-05 0.000300498
3.27474e-05 8.17622e-06 4.94475e-05
-2.32794e-05 -1.48015e-05 -3.21948e-06
-0.000271141 -5.83999e-05 2.90461e-05
1.51249e-05 2.92654e-05 -7.6324e-05
5.41857e-05 0.00020297 -8.72464e-05
-0.000847649 -1.73361e-05 2.20589e-05
0.00026556 -0.000366225 0.000400263
0.00117531 -0.00033566 -0.000621424
-0.000159511 -0.000317368 -0.000170844
-0.000124978 0.000472779 3.3591e-05
-0.000430694 -0.00132915 0.000264175
0.000101368 -8.50761e-05 -6.69135e-05
-0.00160103 0.000549353 0.000555216
-1.2539e-07 1.65118e-07 -1.29814e-06
0.000266044 -0.000132686 -3.92589e-05
2.65678e-05 -4.37792e-05 -5.47621e-05
0.000547451 0.000199208 0.000251101
5.84934e-05 -3.98193e-05 -0.000410988
-4.84764e-05 3.94955e-05 -0.000412088
-0.00048261 -0.000102453 -4.08511e-05
0.000250738 0.000256595 -0.000444433
-1.57622e-05 -4.38647e-06 -2.04605e-05
5.88394e-05 4.27886e-05 4.40765e-05
-1.32976e-05 -4.3725e-05 -5.82341e-05
-9.66655e-05 0.000197977 -0.0017471
-7.93943e-06 0.000489244 -0.000463729
-0.000178723 -0.000381634 -5.58526e-05
-7.92675e-06 1.48664e-05 3.44713e-06
-0.000642037 0.000771576 -0.000246849
0.00270645 0.00211119 0.000661482
0.000148524 2.15319e-05 7.93363e-05
-0.000248515 -0.000404154 -4.26283e-05
3.64711e-05 1.06828e-06 -0.000200923
-0.000267511 0.000184709 5.37944e-05
0.000194023 0.00167165 -0.000490884
-3.90807e-05 8.08884e-05 -0.000343365
-0.000549798 -0.000392784 0.00137394
3.57653e-06 -4.36153e-05 7.45477e-05
0.000748424 0.00229143 0.000796628
4.60571e-07 4.70818e-07 7.78446e-07
-3.56481e-05 1.08848e-05 2.55473e-05
-0.000108644 9.24942e-05 5.72279e-05
1.22806e-05 -1.716e-05 -6.00933e-06
1.09339e-05 -7.94798e-06 5.00456e-06
-6.03224e-06 -0.000581996 0.000347867
8.6236e-05 0.000150976 -0.000227986
-6.94947e-06 -0.000150141 -5.19427e-05
5.6223e-05 7.78107e-05 2.58972e-05
-0.000192914 0.000190221 -1.67275e-05
-7.39055e-06 -1.86373e-05 -8.65429e-06
-7.24671e-06 -6.95713e-06 -1.93775e-05
0.000708663 0.000125067 0.000184919
-1.46938e-05 -1.11515e-05 -7.38805e-06
7.2004e-06 -2.51302e-05 6.11087e-06
-9.5258e-05 -1.8454e-05 -1.49385e-05
3.32246e-06 -1.47094e-05 8.90248e-08
-0.000859683 0.00011817 -0.000288585
-0.000186628 5.33931e-05 -0.000172241
-0.000151509 1.61842e-05 -2.96732e-05
-0.000515598 0.00189805 -0.000131851
-5.38354e-05 -3.55881e-05 3.70217e-05
0.00031643 0.000240262 0.000152941
5.26929e-06 -9.30124e-05 -0.000101842
-9.4492e-06 1.22315e-05 1.53097e-05
-2.80666e-05 -0.000201563 -6.27491e-05
-8.88248e-05 0.000129597 5.65103e-05
5.4438e-05 8.30179e-05 -0.000108457
-0.000197084 0.000265565 0.000175483
-1.84148e-05 -1.14603e-05 -1.60499e-05
0.000170204 -0.00194976 0.00100596
-0.000115493 -3.07901e-05 2.77834e-05
0.000747422 0.000112837 3.05593e-05
0.00040813 -0.000387126 -0.000301467
-0.000714063 0.00182004 -0.00196197
0.000135042 -0.00281097 0.00134586
-4.91346e-05 -3.18751e-05 -1.10655e-06
4.74395e-05 -0.000121482 0.000294807
-8.2441e-06 2.69758e-05 3.52684e-05
1.4174e-05 -2.04279e-05 2.392e-06
8.62303e-05 5.86028e-05 4.34962e-05
1.75405e-05 -2.82971e-05 6.37889e-05
-1.36384e-06 0.000104214 0.000216075
0.00037075 -0.000235264 0.000223671
4.50081e-05 -5.38531e-05 6.54729e-05
0.000570423 0.000580812 0.000108883
-0.000147738 6.5729e-05 6.2524e-05
-9.07596e-05 0.000100624 -0.000101044
0.00205312 -0.000578156 0.000125351
3.66167e-06 1.35943e-05 2.01477e-05
7.27199e-05 -3.56168e-05 -3.47631e-06
-6.29918e-05 5.62628e-05 6.80033e-05
0.000196684 -8.82393e-05 -0.000103257
3.06236e-05 7.79203e-06 -7.59175e-06
-9.54662e-06 -1.1587e-05 8.5476e-06
-1.24454e-05 -2.22772e-05 1.39131e-05
-2.48358e-05 8.88692e-06 -1.12519e-05
-2.20854e-06 -2.41419e-06 8.85621e-06
-0.000125523 0.000118087 -3.59793e-05
-0.000391381 -0.000468856 -0.000101429
0.000352508 -2.91238e-05 -0.000281706
-0.0018367 -0.00154386 0.00043704
-5.24142e-06 9.52523e-06 -4.68986e-06
1.15224e-05 4.31152e-06 -5.0453e-07
-6.36208e-06 2.37991e-05 1.36125e-05
-1.3592e-05 1.92955e-05 5.97966e-07
0.000113891 -4.95818e-05 -0.000101255
0.000347708 -4.44647e-05 0.000105014
-9.89181e-06 -7.78453e-05 2.53584e-06
0.000203538 0.000393682 7.64788e-05
1.40157e-05 -5.63477e-05 3.75342e-05
-8.12022e-05 5.39686e-05 3.00082e-05
-0.000303094 0.000656174 0.000238759
0.00010438 -6.23102e-05 0.000147507
0.000204877 -7.7897e-05 -2.92112e-05
-0.00030359 -1.46847e-05 -0.000472551
-3.49111e-05 6.47097e-06 -2.09814e-05
-6.1616e-05 -5.09743e-05 3.8643e-05
-2.60194e-05 6.89392e-06 6.91756e-06
-0.000179959 8.05884e-05 2.42056e-05
1.46898e-06 1.20571e-06 4.02423e-06
-0.000293777 -0.000284783 -0.000456688
3.39921e-06 -5.8533e-06 -1.25344e-06
-3.13732e-06 1.36205e-05 -1.19377e-05
-0.000446295 0.000314011 8.77223e-05
-8.12093e-05 2.66689e-05 6.56907e-05
-9.90564e-05 2.66515e-05 5.33962e-05
-0.000399449 0.000357263 -7.8841e-05
0.000159481 0.000162382 -9.82641e-05
-0.000550756 -0.000403811 -0.000124859
-0.000560248 -6.68024e-05 -0.000263479
-0.00122118 -0.000295549 0.000323151
-0.0010485 -0.00062429 0.000134469
-6.53322e-05 0.0001076 -9.41068e-05
-4.13395e-05 -0.000139197 0.000332518
3.47766e-05 5.07845e-05 -2.28206e-06
3.00088e-05 -0.000188098 -6.02138e-05
-0.000128844 3.2697e-05 0.00019527
-0.000322761 1.84731e-05 -0.000153177
2.40898e-05 1.82025e-05 2.90295e-05
-2.16395e-05 1.77869e-05 -4.89141e-06
8.04791e-08 -1.42857e-07 3.8864e-06
8.04026e-05 9.34966e-05 -0.00049956
-4.47157e-05 3.7729e-05 -9.81256e-06
2.47491e-05 -0.000163919 0.000328469
1.87099e-05 -8.75075e-06 -9.58385e-06
9.52052e-06 8.28847e-07 -1.32581e-05
6.52254e-07 5.15697e-06 -1.49887e-06
-8.97169e-06 1.14149e-05 -1.90012e-05
1.2572e-05 -4.92201e-06 -1.85472e-05
-0.000237165 8.21791e-05 0.000143956
-4.16462e-06 2.10495e-07 5.7292e-06
4.0152e-06 -2.38131e-06 -1.62997e-06
3.94503e-05 -0.000272952 0.000401674
0.000696076 3.86785e-05 0.000203137
-1.2492e-05 -1.90811e-05 1.44252e-05
-0.000216362 -1.82708e-05 -2.55236e-05
3.31955e-05 0.000178699 -3.73638e-05
8.70223e-07 8.91988e-07 -5.94691e-07
0.00210338 6.13399e-05 0.000439855
7.37585e-06 4.82499e-06 7.50684e-05
0.00201291 0.0012291 -0.00302858
-0.00263643 0.00313398 0.000961493
0.00372429 0.00356861 0.000242531
-0.000359078 0.00179351 -0.000142998
0.00152045 6.4105e-05 -0.000313811
0.00156586 -0.00296837 -0.00453749
0.00448667 0.00366728 0.0049112
0.00130698 0.0018236 -0.000103429
2.80439e-05 -0.0006195 -0.00109232
8.20983e-05 -0.000310072 0.000931635
-0.00245413 0.00253669 -0.00066135
-7.08618e-05 8.16905e-05 -4.81268e-05
6.30752e-06 1.43378e-06 -1.02313e-05
-6.50593e-06 -0.00011997 0.000192844
-7.88663e-05 0.000124222 -0.000166759
-7.97092e-05 -2.60774e-05 5.25735e-05
0.000186024 -3.66507e-05 4.35642e-05
-0.000283859 -0.000478711 8.98248e-05
-2.42653e-05 -9.40935e-05 0.000172092
-0.000729485 0.0050624 -0.00371579
0.000221258 -0.000217433 -0.00014267
-3.12461e-05 3.30161e-05 -7.88471e-06
0.000253024 0.00046705 -0.000160394
-8.19846e-05 -6.9647e-05 -2.82375e-05
3.18915e-05 -3.19608e-05 1.43305e-05
0.000797616 0.00285952 -0.00308499
2.49471e-05 0.000224374 0.000125671
0.000744741 0.000135851 -0.000330387
-0.000470978 -0.000348864 -0.00030896
0.00111787 0.000159267 -0.00190302
0.00278671 0.00114364 0.0002388
6.21942e-05 6.24666e-05 4.0368e-05
5.16331e-05 6.88288e-05 -3.29123e-05
2.20363e-06 -1.62688e-05 -2.20347e-05
-1.89434e-05 5.42995e-05 -3.15372e-05
-1.37584e-05 -1.71893e-05 2.92296e-05
-0.000140501 -0.000174794 -8.50233e-05
-0.000157787 0.000196454 0.00300463
5.4679e-05 7.54832e-05 0.000295346
-1.02954e-05 1.11971e-05 6.59511e-07
1.46044e-07 4.19036e-06 2.07349e-05
-0.000326078 0.00113785 -4.78184e-05
2.3006e-06 5.77697e-05 -3.2065e-06
0.000709684 -0.000269095 -0.000891824
-6.12817e-05 0.000505655 -0.00597298
0.000109334 0.000305019 3.74586e-05
0.000506362 0.00503029 -0.000727135
-0.000540628 -0.000182126 0.00026309
0.00118912 -0.00372113 0.00141248
-4.06613e-06 1.21471e-05 -2.17095e-06
0.000265041 3.18048e-05 6.35577e-05
-0.000743052 -0.000248379 -5.85472e-05
0.000452521 0.000324878 -0.000278049
3.89275e-05 4.94679e-05 0.000128002
0.000585505 -0.00169272 -0.0016486
0.000157776 0.000805849 -0.00160467
0.00305242 -0.000405257 -0.000459402
0.00115881 -0.000705218 0.00310099
0.000783401 -0.000934246 0.00159069
0.000540752 -0.000144037 0.00131054
-0.00245464 -0.000745934 -0.00156639
-0.000112829 0.000166632 -0.000357679
0.000684363 0.000637788 0.00276551
-0.000334913 0.00255738 0.000796762
-2.83466e-05 0.000138334 7.97135e-05
-1.26891e-05 -1.8532e-05 7.10865e-05
-2.35309e-05 -0.000130613 -3.87385e-05
0.00131879 0.00156854 0.00116096
-2.49258e-05 -3.92475e-05 -0.0003679
-6.96223e-05 0.000274212 -0.000439307
-0.000194866 -4.15208e-05 2.49904e-05
0.00229114 0.000679264 -0.000463742
-0.00024254 -0.000322279 0.0011869
0.000146598 -0.000210929 -1.21504e-05
1.49682e-05 1.42117e-05 3.79438e-06
0.000123342 5.64897e-05 -7.1402e-05
-5.44396e-05 9.14053e-05 4.78374e-05
-1.47268e-05 -2.16782e-05 1.06044e-06
0.000205331 0.000115261 -0.000198897
-3.39742e-05 -4.08849e-05 -5.27382e-05
7.56601e-05 5.97592e-06 3.72769e-05
8.79345e-06 1.145e-05 1.80235e-05
0.000418461 -6.893e-05 -1.02108e-05
-1.37177e-05 2.4621e-05 -0.000154721
-0.000792221 -0.000179232 0.000150142
-0.000350535 0.000610095 -0.00109713
-0.000145873 -2.00255e-05 0.000559477
-0.00073963 -0.000189111 0.000187946
-0.000392771 -0.000868366 -2.8646e-05
-0.00270185 0.00246723 0.000619813
-0.00287848 0.00511089 0.000305036
-0.00113898 -0.00126633 -0.00283669
5.6162e-05 -2.57577e-05 1.69222e-05
0.000602386 -0.000145835 0.000605723
1.24469e-05 2.45045e-05 3.25959e-05
-7.35986e-05 3.06154e-05 -0.00026795
0.000600676 -0.000715448 -0.000702445
-0.000179371 0.000406252 0.000154409
-0.00181383 0.0037144 -0.00315918
-8.87169e-05 -9.81335e-05 0.000206829
-0.00347556 -0.00103661 0.00262837
9.24052e-05 0.000112231 8.29078e-05
5.17588e-05 4.96604e-05 4.1221e-05
-0.000108814 -0.000141319 0.00011678
-6.59819e-05 0.000124472 6.24035e-05
4.318e-05 2.96378e-07 -2.86292e-06
-0.000170283 0.00103726 0.000791793
0.00012778 0.000594002 -0.000103604
-0.00262081 -0.000548426 0.00239443
-0.00122266 0.00108167 -9.54144e-06
9.85432e-05 4.56567e-05 -1.78663e-05
0.000722043 -0.0023463 -0.0013728
-9.65684e-05 0.000296014 0.000499818
-0.000155469 0.000152078 3.31689e-05
6.64663e-05 -0.000329912 -2.65534e-05
-7.12833e-05 2.58083e-05 -3.37032e-05
-0.00280459 -0.00304187 0.000452249
-2.25914e-05 0.00144837 -0.000857272
-6.46527e-06 7.37355e-06 -5.91868e-06
-0.00308461 0.00171793 -0.00108469
0.00012107 4.67178e-06 -0.000206069
0.000752945 0.00316196 0.000774974
-0.000103091 -0.00182163 -0.000483816
0.000265157 0.000174681 -0.00064013
-9.22675e-05 0.000117752 0.000482064
9.90326e-05 3.53827e-05 -0.00036196
0.000144513 -0.000129641 -2.7829e-05
-0.000369053 -0.00030635 0.000731509
-1.23803e-05 -8.00284e-05 4.35611e-05
6.71377e-05 -0.000355567 0.000659707
0.000126192 -4.0131e-05 0.000435813
-0.000145614 -0.000228152 -0.000187824
-0.000137873 -0.000418217 0.000476684
-0.000221386 0.000205925 6.58688e-05
-3.54213e-05 -0.000139244 0.000112343
0.00014449 3.439e-05 0.00011624
0.000284982 -0.000159355 -1.69042e-05
-7.12302e-07 -1.15004e-06 -1.08356e-07
6.80675e-06 7.61882e-06 5.38175e-06
0.000144232 -7.85835e-05 0.000171901
-7.27317e-05 -2.88257e-05 6.90466e-05
-0.000237174 1.94145e-06 -5.54536e-05
-0.000128864 -0.000273621 9.43545e-05
5.35666e-05 3.59496e-05 -6.36693e-06
3.74738e-05 -2.58221e-06 -1.96863e-05
-0.000447649 -0.00020333 3.58919e-05
-0.000275476 -0.000390182 4.0818e-05
4.57943e-05 -7.86542e-06 -1.35396e-05
8.14684e-05 0.000192591 -3.35468e-05
-0.000109996 -0.000335762 -0.00035091
-0.000113392 2.23972e-05 -0.000570869
0.000307795 0.000196188 -9.92712e-05
-0.000911605 0.00032553 -4.13404e-05
3.06254e-05 -9.24809e-05 -5.88021e-05
-4.31201e-06 3.20674e-05 3.16282e-05
1.24247e-05 5.41668e-06 -5.05698e-05
0.000494327 -0.000953807 0.000397211
-2.81413e-06 4.01384e-06 -2.93807e-06
2.01768e-05 0.000185363 5.94171e-05
-0.00079484 -0.000202679 -0.000358022
0.00120388 0.000557749 0.000440328
-0.000128793 0.00026043 -0.000212076
-0.000458523 -0.00100875 -0.00043871
0.000291456 -0.000311927 -0.00035845
-1.33801e-05 -6.68239e-05 3.54303e-05
-0.000117053 -0.000392804 0.000259385
9.74342e-05 -5.16345e-05 -0.00103737
0.00014631 0.000172514 5.64327e-05
-0.000176231 0.000101838 -1.53817e-05
-0.000833732 -0.000205795 0.000403663
0.000785396 0.000334766 0.00123797
-0.000625687 -0.000204655 4.0089e-05
2.57562e-05 0.000492242 -0.000869971
6.57492e-05 0.000255921 8.04019e-05
5.4726e-07 1.0664e-05 7.39714e-07
-2.35833e-05 5.07893e-05 4.50991e-05
-8.84259e-06 -1.35382e-05 3.36359e-06
0.0013645 -0.001733 0.000628604
-0.000161717 0.00136538 0.000754152
-0.00117102 0.000653207 -0.00101316
6.16962e-05 -0.000231482 -3.36707e-06
-0.000165335 -0.000342743 -9.01242e-05
-2.17203e-05 4.25938e-05 2.3229e-06
-0.00030583 -9.44578e-05 5.34652e-05
5.93632e-05 -5.79461e-05 5.81144e-05
0.000255235 0.000118671 -0.000237872
-0.000562493 -0.000170498 -4.33238e-05
-7.74099e-06 4.36759e-05 2.92006e-05
-0.000224419 -0.000444212 -0.000191189
2.50806e-05 1.19236e-05 -4.51477e-05
1.09044e-05 -2.98023e-06 5.90562e-06
-6.0558e-06 2.45234e-05 1.28681e-05
1.44171e-05 -3.01468e-05 7.28983e-05
6.94779e-07 -1.19815e-06 6.7083e-07
-0.000117618 -0.000126234 -2.60737e-05
-3.72036e-06 -1.89715e-05 8.64486e-06
-9.10921e-06 2.49829e-05 -1.16476e-05
-1.63048e-05 -2.93479e-05 -3.23271e-07
-3.77875e-05 -5.38286e-06 -1.88363e-05
-8.54762e-06 8.59972e-06 6.32704e-06
1.9984e-05 7.03883e-06 1.35357e-05
0.000104778 -6.27419e-05 8.99953e-05