<?xml version="1.0"?>
<VTKFile type="UnstructuredGrid" version="0.1" byte_order="LittleEndian" compressor="vtkZLibDataCompressor">
 <UnstructuredGrid GhostLevel="0">
  <Piece NumberOfPoints="1040" NumberOfCells="1040">
   <PointData>
    <DataArray type="Float64" Name="Elongation" NumberOfComponents="3"/>
8.15962e-06 1.59341e-05 -4.70786e-06
-4.22196e-06 -6.8688e-06 -3.22377e-07
-6.40264e-06 -1.09441e-05 5.70863e-07
5.97924e-06 7.52952e-06 -6.21236e-06
3.4897e-05 2.54208e-05 -1.00255e-05
-5.92013e-05 -4.55004e-05 -3.2681e-05
0.000607442 0.00097786 -5.50274e-06
-0.000184216 -0.000298517 -6.32824e-06
-1.59657e-05 -2.53199e-05 -2.18226e-06
0.000651973 0.000825286 -0.00163345
-0.000216246 -5.82361e-05 -0.000390101
1.41867e-05 8.16369e-06 3.89024e-06
7.72555e-05 0.000314996 -0.000471257
-3.65448e-05 -6.53064e-05 1.36911e-05
-6.31315e-06 -6.73884e-05 0.000201119
-6.84772e-05 -0.000123825 3.90682e-05
2.16644e-05 2.99972e-05 7.36809e-06
0.000194682 0.000289258 1.4802e-05
-1.26692e-05 -1.78465e-05 2.54776e-06
-2.94607e-05 -7.09052e-05 -8.01348e-05
0.000869345 0.000120509 -0.00165745
-2.34571e-05 -5.5784e-05 -4.12912e-05
-1.20635e-06 -1.28315e-06 1.60433e-06
-7.98007e-06 -2.73025e-05 -2.77075e-05
3.02427e-06 3.25292e-06 -2.31002e-06
-3.87857e-05 -4.32984e-05 7.61504e-06
0.000134119 0.000226406 -0.000579751
-0.000529046 -0.000360873 -0.00121821
0.000206894 0.000378957 -0.000142519
-0.000316529 -0.000674353 0.000707508
-1.36895e-05 -7.51683e-06 -4.05075e-06
2.89219e-05 1.56433e-05 7.5817e-05
-1.2147e-05 -3.37036e-05 2.65837e-05
-2.61314e-06 -5.36033e-05 0.000118415
-3.21757e-05 -3.15621e-05 -6.3059e-05
6.85132e-06 6.52111e-06 4.14681e-06
-6.85845e-06 -4.89806e-06 1.30354e-05
9.30531e-06 2.09101e-05 9.3703e-06
-5.41878e-06 -3.73998e-06 -2.04816e-06
4.50613e-05 0.000152222 0.000146718
-3.89283e-07 2.92053e-05 7.85184e-05
-3.93052e-06 -3.37933e-06 2.55738e-06
0.000173206 0.000125093 -3.33705e-06
0.000124395 0.000213324 4.54755e-06
0.00177585 0.00104896 -5.18032e-05
-2.98839e-06 -6.16818e-06 1.94334e-06
-4.27188e-05 -2.50366e-05 1.21593e-06
-5.94073e-05 -7.71921e-05 4.79402e-05
-0.00011662 -8.96692e-05 -9.2571e-05
-6.22185e-05 -6.71718e-05 -7.95467e-06
-1.35951e-06 -1.94661e-06 1.50782e-06
7.24899e-06 7.87727e-06 4.5765e-07
-6.90014e-05 -5.70695e-05 6.31715e-05
-8.72556e-05 -0.000106316 -2.07724e-05
0.000477042 -0.000276973 -4.23669e-05
-1.94961e-05 -1.98516e-05 7.71632e-06
0.000413079 -0.000363832 -0.000261331
-4.29855e-05 0.000187891 -0.000315884
0.000210843 -0.000292654 0.000142524
5.41251e-05 -6.84361e-05 1.4534e-05
2.68146e-05 -2.64372e-05 -3.01001e-06
-8.66904e-06 -1.10438e-05 -5.67347e-07
-0.000108307 7.33984e-05 3.59076e-05
7.50354e-07 -6.17653e-07 8.99986e-08
-2.11685e-05 4.6914e-05 -7.817e-05
-9.04347e-07 -6.63246e-06 -9.95806e-06
1.86417e-06 -6.91199e-07 2.34974e-06
-6.88995e-05 5.00405e-05 -2.04624e-05
-1.38808e-05 3.62646e-05 6.69581e-05
0.000129916 -0.000143751 8.57607e-05
0.000354136 -0.000405589 -0.000682015
0.000206438 -0.000228938 -8.43147e-05
-2.5394e-05 3.28314e-05 -9.72526e-06
-1.5339e-05 -2.16303e-05 4.79862e-06
-0.000219344 0.000105872 0.000132315
-2.66249e-05 4.61422e-05 -8.72832e-07
-1.3416e-05 2.38944e-05 -1.9529e-06
2.31685e-06 -4.54412e-06 1.16053e-06
-9.73182e-06 1.70937e-05 -9.84894e-07
-7.20352e-05 8.0086e-05 5.24442e-05
0.000210009 -2.78682e-05 -0.000455734
1.49248e-06 -1.67726e-06 7.11215e-08
-0.000138712 8.71779e-05 1.79084e-05
-0.000102509 8.77588e-05 -0.000190502
-6.32335e-07 1.31704e-06 4.65377e-07
-1.18451e-05 2.04567e-05 5.0129e-07
-1.0446e-05 1.60197e-05 -3.50457e-06
-2.21674e-05 -3.21249e-05 1.08167e-05
-0.000125786 0.000287552 -0.000218717
-9.85792e-06 4.94613e-06 1.17013e-05
-1.75904e-05 1.54847e-05 9.84657e-06
1.81582e-05 -4.22396e-05 5.04339e-05
-1.61672e-05 1.94385e-05 7.63656e-06
-2.43727e-05 2.56673e-05 4.62562e-05
-4.24319e-05 5.55182e-05 2.95395e-05
-4.34756e-05 6.90961e-05 1.27026e-06
-7.03088e-06 -1.07809e-05 1.84874e-06
0.000174444 -8.11687e-05 8.13281e-05
3.85618e-05 -4.83784e-05 -8.82e-05
8.28905e-05 -0.000131977 1.80344e-05
-2.1045e-05 2.02516e-05 -7.35518e-06
-6.97413e-06 -1.20822e-05 -9.43301e-07
4.65917e-06 -7.11167e-06 -1.17592e-06
-4.38956e-05 7.1051e-05 1.35552e-06
-7.34489e-06 5.42705e-06 9.95544e-06
-1.47593e-05 1.9739e-05 -1.45302e-06
4.32158e-05 -6.16675e-05 3.58632e-05
1.20983e-05 1.34333e-05 7.37467e-06
-4.46972e-07 5.61562e-07 -1.27215e-07
-3.49631e-06 4.5346e-06 -1.40223e-06
0.000391563 -0.000853928 -0.0014804
-1.15209e-05 2.17751e-05 2.43617e-05
0.000611465 -0.00084621 -9.23553e-05
8.19925e-05 -0.000160628 -0.000174876
-1.26083e-05 1.59548e-05 -9.05333e-07
-0.00127866 0.00159103 -0.000544934
2.30415e-05 -9.31783e-06 6.24774e-05
-9.66602e-06 1.32375e-05 5.56425e-06
-1.46446e-05 2.13408e-05 1.35895e-05
9.84035e-06 -1.10999e-05 2.97893e-07
0.000121132 0.000111502 -4.58321e-05
-6.44402e-06 1.55209e-06 -2.37114e-05
5.0304e-05 -0.00019767 0.000236089
-1.15818e-05 -1.39313e-05 -1.23679e-06
3.62476e-06 3.56513e-05 -2.19949e-05
-0.000868722 -4.17804e-06 -0.0049399
6.16548e-05 0.000768686 -0.000453643
2.80361e-05 0.00105358 -0.001035
-4.80165e-07 -5.97438e-06 1.00906e-05
0.000115921 0.000174351 0.000303025
-2.21622e-07 0.000173195 -0.000504454
4.79902e-09 -1.46339e-08 -5.66914e-06
-1.62329e-05 -1.83887e-05 3.19631e-06
-1.61084e-06 1.60861e-05 4.23571e-05
-2.122e-05 2.73481e-06 1.15379e-05
8.82409e-06 1.35553e-05 3.03355e-07
-5.23991e-06 8.11025e-07 -8.68725e-06
-1.29569e-06 2.61282e-06 -5.78773e-06
1.85023e-06 5.53044e-05 1.88843e-05
1.63816e-06 6.5018e-06 -2.35253e-06
6.4138e-08 8.80831e-07 -3.61879e-06
7.84265e-05 -1.29128e-05 0.000104706
-0.000290255 6.10839e-05 -0.000212784
-1.62894e-06 -2.11462e-05 0.00105518
0.000176948 8.01263e-05 -0.000984177
0.000153233 -8.86101e-05 0.000500804
1.71573e-07 -4.89294e-06 2.03767e-05
5.68849e-07 7.36521e-06 0.000147551
3.64766e-05 7.29893e-05 0.000111278
6.18929e-05 -4.23111e-06 8.70141e-05
1.26439e-05 1.56627e-05 1.11202e-05
-4.6061e-05 -3.71702e-05 5.88262e-05
1.0993e-05 6.11898e-07 -2.04248e-06
-4.17429e-05 -1.5557e-05 0.000240881
-0.000171078 -4.35677e-06 0.000151201
1.04812e-05 -9.27563e-06 6.11331e-06
-4.55999e-06 1.53353e-07 -0.000650066
0.000365957 0.000282388 0.000873261
1.94096e-05 2.41868e-05 -1.56177e-05
-8.05545e-05 -9.25262e-05 -0.000246485
6.5045e-06 6.27262e-06 -9.95406e-07
1.78648e-05 -3.00929e-05 8.64716e-06
2.81894e-05 -1.80395e-05 1.44904e-05
-3.08839e-05 -2.6372e-05 1.37386e-05
2.72414e-05 6.49641e-05 -1.25583e-05
0.000290606 0.000364994 -0.000424461
-0.000577247 0.000684559 -7.95877e-05
-0.000457199 -0.000108248 0.0013567
-3.68356e-05 7.62411e-06 6.78864e-05
0.000635005 0.00151627 -0.00055891
-1.53473e-05 -1.80911e-05 -6.05746e-06
-0.000309709 1.56638e-05 0.000368612
0.000400319 0.00012782 -0.000874848
-2.05668e-05 1.12533e-05 -3.9842e-05
4.33904e-06 -8.25004e-08 1.01959e-05
0.000235791 9.90041e-05 -0.000233587
2.9238e-05 -6.85069e-05 0.000143411
3.38048e-05 -3.36175e-05 3.27512e-06
-2.01152e-05 1.90692e-05 1.27122e-06
0.000812349 -0.000673246 0.000979872
-0.000850454 0.000331954 -0.00123192
0.000123332 -0.000609439 -0.000209469
-2.66262e-05 2.55716e-05 -1.09885e-05
-0.000434197 0.000451633 1.84448e-05
-0.000117511 0.000113742 -1.56517e-06
-5.64444e-06 -4.96634e-06 -1.73874e-05
1.85626e-05 -2.16205e-06 1.07751e-05
-3.25796e-05 5.33661e-05 3.93567e-05
7.18583e-06 4.60472e-05 7.7388e-05
-1.5932e-06 1.49572e-06 4.99035e-06
1.11111e-05 2.88172e-05 3.28792e-05
-1.61501e-05 3.76415e-06 2.4909e-05
2.6156e-05 -4.16489e-05 -8.13077e-05
3.12067e-06 7.29093e-06 6.14188e-05
2.46958e-06 -9.69296e-07 -3.90045e-06
-5.43815e-05 2.23005e-05 -2.65891e-05
4.77761e-05 4.61926e-05 -0.000122571
-0.000250182 -6.31356e-05 0.000108004
0.000231982 -0.000256702 2.42965e-05
-0.000531701 0.00104121 6.66923e-05
-0.000408875 -0.00136666 0.000351943
0.000142797 0.000141146 -9.8719e-05
-0.000166643 -0.00013592 -0.000367834
0.0001437 0.000348442 0.000185759
8.93225e-05 -9.26115e-05 -2.26522e-05
-3.20745e-05 2.11956e-05 2.30028e-05
4.3816e-05 0.00038055 0.000229157
0.000724845 3.90634e-05 -6.36765e-05
-0.000128595 -0.000223013 -0.000103398
1.60463e-05 3.26548e-05 5.78235e-05
5.00346e-05 7.28609e-06 -2.06861e-05
-0.000571405 -0.000290517 1.30637e-05
4.26822e-05 -7.89462e-05 -0.000766566
7.56989e-07 5.80041e-07 -1.4809e-06
2.94727e-05 1.03676e-05 -0.000203539
1.70626e-05 -4.69015e-07 6.15479e-05
4.76227e-05 0.000243606 -0.000388369
3.44367e-05 -8.11079e-05 -6.97027e-06
3.36761e-05 -1.56729e-06 -9.37857e-06
0.000142325 6.98664e-05 1.58153e-05
3.00306e-05 1.99064e-05 -4.12222e-05
1.45164e-05 4.73122e-05 8.49242e-06
-1.84507e-05 -1.84556e-05 9.82422e-06
-1.6013e-05 -1.60183e-05 -3.88229e-06
-5.64906e-08 4.9955e-07 1.68158e-05
-1.37981e-05 -4.53682e-05 1.34342e-05
-4.43153e-05 2.20147e-06 4.83325e-05
1.61681e-05 7.77946e-05 -1.24642e-05
-1.30797e-05 1.6247e-05 -5.46465e-06
9.16736e-06 -6.34228e-06 3.41189e-06
-3.93231e-05 1.59018e-05 1.2061e-05
-8.39189e-06 1.63221e-05 2.51459e-05
1.35176e-05 -3.7891e-06 -9.01601e-06
4.00551e-05 -1.08e-05 -2.89485e-05
9.62727e-05 -0.000108174 -5.89627e-05
0.000108312 -4.43883e-05 -5.20575e-05
-1.0002e-05 -0.000135315 -8.94773e-05
-3.65941e-05 -2.92582e-05 2.73413e-05
-0.000105174 5.36202e-05 -4.92686e-05
-1.58384e-05 -0.000106597 -0.000134129
4.18073e-05 -1.17505e-05 -1.82146e-05
0.000330099 0.000174369 -0.00016002
-0.000636768 3.16824e-06 -0.00269476
-0.00173441 -0.000209581 0.00198531
0.00172297 -0.00167874 0.000949083
2.52033e-06 -3.27962e-06 -1.1092e-06
5.77467e-06 1.67585e-05 -1.81004e-06
5.6063e-06 4.76819e-06 -2.36922e-05
8.60299e-05 -6.25467e-06 0.000111621
-0.000514683 0.000397614 0.000249799
0.000187558 -8.83753e-05 2.40554e-05
0.000130846 5.26802e-05 0.000101238
-1.52471e-05 2.34671e-06 9.49372e-06
-8.51994e-05 -6.8518e-05 -7.03776e-05
4.32064e-05 -1.70874e-05 6.15382e-05
6.26906e-06 0.000173102 5.88028e-05
0.000164671 -0.000178423 -1.80426e-05
1.50425e-05 4.11194e-05 -6.29653e-05
-1.49414e-05 -0.000101764 3.8364e-05
0.00368377 0.00241882 0.00144582
-0.00152509 0.00266325 -0.000897736
0.000196546 0.000347527 0.000297586
0.00124791 -0.00126888 -0.000473223
-0.000746787 -0.00125334 -0.000535011
-2.92204e-05 -0.000156223 0.000108245
-9.71442e-06 -1.97893e-05 -7.93635e-06
-9.0616e-05 0.000108474 -0.000373383
-9.84463e-05 -6.80471e-05 -6.29154e-05
-3.0322e-05 5.04443e-06 -3.40596e-05
3.55769e-05 -3.35888e-05 2.48189e-05
-0.000131945 -4.98118e-06 -0.000153257
-0.000257724 0.000257472 8.04404e-05
-4.3727e-06 -4.24073e-06 1.88486e-05
-1.21808e-05 1.15404e-05 -9.23643e-07
6.66478e-06 -3.5632e-05 -2.57547e-05
6.56715e-05 -4.06735e-05 -3.73588e-05
-3.44885e-05 -3.51533e-05 8.80128e-06
1.53216e-06 1.46685e-05 -3.1144e-06
8.72577e-07 -4.06089e-07 4.17847e-07
-5.952e-05 1.30212e-07 3.42349e-05
-3.54837e-06 1.85967e-05 2.89494e-05
-0.000724901 0.000144612 -3.07801e-05
8.78734e-06 3.38365e-05 0.000103109
0.00016948 0.000720509 -0.000521481
0.000424662 8.06317e-05 -0.000175893
0.000132819 -0.000285262 8.49739e-05
-0.00118406 0.00034007 0.000310725
0.000192794 1.36407e-05 -0.000438974
-1.21526e-05 -8.33847e-05 -9.36249e-05
-1.31014e-05 -2.04056e-06 6.88279e-06
0.000171289 -0.000180299 -2.76278e-05
-4.38844e-05 -2.29711e-05 3.47685e-05
-0.000601848 -0.000442335 -0.000230765
-9.15657e-05 0.000384332 0.000207849
-0.000225572 8.97119e-05 0.000591331
0.000315223 -9.04655e-05 -0.000377872
3.73273e-05 -1.81039e-06 1.30643e-05
-9.64534e-06 7.47515e-05 0.000528996
-7.72892e-05 -4.56528e-05 1.74315e-05
-4.51285e-05 -0.000295324 0.000304169
-1.39839e-06 3.73086e-06 1.04282e-05
-1.24089e-05 -5.82834e-06 4.79333e-05
-0.000513455 -0.000589085 -0.000180573
0.000191013 0.000425142 0.000286474
3.5745e-05 2.10382e-05 1.74056e-05
-0.000116875 0.000365684 -0.000443826
-0.0001783 0.000611471 0.000652327
-1.19069e-06 -1.42672e-05 1.06508e-05
7.3867e-05 -9.66406e-05 -6.67448e-06
-0.000370375 -0.000273861 -0.000219595
-0.000180601 -3.59264e-06 0.000170278
-0.000138984 -0.000653575 0.000113649
-5.45151e-05 -2.47731e-05 -4.35018e-05
-3.84333e-05 4.35578e-05 -1.6778e-05
-0.000149043 0.000109403 -4.60654e-05
-5.36636e-06 -0.000199976 -0.000111346
-4.49753e-05 5.22964e-06 -8.934e-06
-0.000471071 0.000117819 -0.000111506
-4.94246e-06 1.55506e-06 -3.12193e-06
-0.000112266 -0.000160549 -3.04845e-05
9.06996e-05 -0.000197047 -2.01791e-06
3.44194e-06 -3.63934e-06 -3.08231e-06
1.81808e-06 -6.88517e-06 -8.74257e-07
-2.78299e-05 -6.34153e-06 -5.96154e-06
2.13063e-05 -2.58219e-05 -2.98969e-05
-1.73123e-05 2.47936e-05 1.66331e-05
-8.90505e-06 4.76055e-05 5.1774e-06
2.49987e-05 1.91669e-05 1.4786e-05
-2.83322e-05 2.81977e-05 5.8532e-06
4.76681e-05 5.57152e-05 -9.67044e-06
-6.04927e-06 -1.80999e-05 1.51915e-05
1.14714e-05 -2.46542e-06 4.6925e-06
0.000116997 3.89499e-05 -3.6918e-05
7.20516e-06 1.93115e-05 -3.41294e-06
1.38018e-05 4.85236e-05 -1.36168e-05
-7.05266e-05 3.60799e-05 5.98033e-05
3.53327e-07 -3.00111e-06 -2.10512e-06
-4.22324e-06 1.10919e-05 2.22188e-05
6.37875e-06 2.11798e-05 7.9129e-06
8.73218e-06 8.12907e-06 -3.40611e-06
-4.08712e-05 -1.32002e-05 5.87367e-05
1.91022e-05 -1.2605e-05 4.67276e-05
-3.54556e-05 -7.08275e-06 -1.56034e-05
-2.6096e-05 8.52946e-05 0.000180073
2.19444e-05 2.47742e-06 -9.20696e-05
2.6181e-05 -2.60395e-05 1.03152e-05
2.32315e-05 -8.65745e-05 -4.48798e-07
2.06366e-05 2.75235e-05 -2.16404e-06
7.13918e-06 6.53957e-06 1.40489e-05
-0.000114685 4.61454e-05 0.000247123
0.000268059 3.02498e-05 -0.00039098
3.24722e-05 -3.01069e-05 -2.83187e-05
-2.08621e-05 -1.10644e-05 3.02243e-05
3.65234e-05 4.43692e-05 -8.53593e-06
0.000184725 0.000118303 8.75717e-05
6.30216e-05 5.33836e-05 3.17684e-05
3.44752e-06 -1.6691e-05 7.93492e-05
0.000639759 -0.000378767 -0.000325213
2.30906e-06 9.01561e-06 1.03811e-05
7.25899e-06 -1.40187e-05 -1.87027e-05
4.81042e-06 -1.69622e-05 1.77499e-05
-2.79956e-05 -2.98205e-05 -7.40258e-05
-1.31286e-05 -3.72539e-05 7.94259e-07
1.8399e-05 -8.60908e-05 6.46923e-05
0.000138667 0.000237258 7.73862e-05
1.89285e-05 -5.71492e-06 -1.43431e-05
-0.00064324 1.58021e-05 5.03648e-05
-5.01518e-05 2.46162e-05 -1.92783e-05
-1.39279e-06 -1.65375e-05 4.27559e-05
8.47741e-05 -1.22304e-05 6.67999e-05
-0.000291021 -0.000194028 4.1723e-05
-1.43575e-05 7.84925e-06 -1.04353e-05
-2.64409e-05 1.91606e-05 5.56606e-05
6.46666e-06 3.24524e-06 3.86623e-05
-0.000401735 -8.50683e-06 0.000158342
-1.78685e-05 -1.71248e-05 3.69299e-06
-0.00038473 -0.000613591 -0.000604137
0.000714105 0.000718593 9.2636e-05
-0.000595227 0.000243713 0.000105681
-6.48082e-05 -5.19707e-05 3.55027e-05
1.20972e-05 1.66457e-05 2.66885e-05
7.84339e-05 0.00020938 0.00015593
6.74121e-05 1.46035e-05 9.26346e-05
-5.72824e-05 -5.82412e-05 6.91965e-05
0.000522369 -0.00014316 -7.8723e-05
0.000575144 2.72763e-05 -0.000196471
0.00237112 -0.003672 -0.000422697
4.20759e-06 2.93593e-05 -6.13295e-06
4.08537e-06 3.79337e-05 -2.8919e-05
0.000156991 7.53337e-05 2.36394e-05
7.81854e-05 -6.83225e-05 -9.18709e-05
0.000165148 -0.000194563 -5.11825e-05
0.000877767 0.00040011 -0.000201546
-0.00012058 9.21378e-05 0.000153288
0.000347092 -0.000145843 0.000285902
-6.43416e-05 7.1922e-06 0.000141122
3.6349e-05 -5.01062e-05 -5.53896e-05
2.18923e-05 -2.19026e-05 1.79826e-06
4.83936e-05 4.19477e-05 -3.50774e-07
-1.73014e-05 1.75661e-05 -2.25142e-06
9.12248e-05 -0.000153586 2.1777e-05
-1.82315e-05 -3.09399e-05 -0.000142323
1.62393e-05 -8.71029e-05 6.2847e-05
1.54536e-05 2.53668e-05 1.99355e-05
9.04542e-05 0.000100092 1.64185e-05
-1.04538e-05 5.95102e-05 0.000150237
-0.000121012 2.59713e-05 9.09065e-05
9.17601e-07 -3.6841e-06 -1.74297e-07
-0.000127576 -3.74938e-05 -3.89717e-05
3.31555e-05 4.03877e-05 0.000266942
-5.65975e-06 1.43556e-05 4.05716e-06
-0.000455107 -8.45144e-05 -0.000326825
-3.91597e-06 3.30219e-05 3.13046e-05
9.28661e-06 -2.01556e-05 -2.4006e-05
-0.000165971 8.76962e-05 0.000145001
6.85501e-06 4.35089e-05 6.48691e-06
-3.13395e-05 2.33111e-05 -1.34119e-05
-0.000215195 -0.000160343 -6.00176e-05
9.21445e-05 0.000279608 -0.000119635
-0.000354204 -8.40717e-06 0.000205344
3.72297e-05 0.000608157 0.000545042
0.0010671 -0.00112759 0.0019763
0.000287222 -0.000316302 -3.03603e-05
2.32293e-05 7.31702e-06 -1.2842e-05
-8.48143e-05 0.000401614 -3.55662e-05
-0.000557289 -0.000235326 -0.000830982
-1.60837e-05 -1.56574e-05 4.02392e-06
2.15233e-05 -8.87244e-05 5.71433e-06
-0.000566577 -0.000175174 0.000740357
4.20345e-05 0.000656898 0.000242213
0.000136762 -5.44894e-05 0.000164132
-0.000164089 0.000160247 9.37365e-05
-0.000319326 0.000111254 9.7751e-05
-7.52518e-05 9.02037e-05 5.85372e-05
-5.81664e-05 3.35501e-06 1.873e-05
-7.68067e-05 -4.41262e-05 -0.000139653
7.19775e-05 3.73602e-05 3.90125e-05
-0.000219084 -0.000501309 -2.67726e-05
3.67318e-06 4.3782e-06 3.07651e-06
-6.68837e-06 -1.76886e-05 9.5863e-06
-4.22201e-05 -4.25091e-07 6.8577e-05
-5.75846e-06 6.0769e-06 -1.04141e-05
-1.37409e-05 -5.72043e-05 6.68217e-06
0.000282768 7.33949e-05 4.66195e-05
4.72524e-05 9.84292e-06 -1.59187e-05
-0.000108281 -4.71565e-06 -2.49381e-05
4.09126e-05 -5.15033e-05 -7.98106e-06
-6.11518e-05 9.81924e-05 -5.30801e-05
-8.75063e-06 -8.14947e-06 1.02574e-05
2.31461e-05 2.10203e-05 1.44116e-05
-6.57678e-05 4.13623e-05 7.90685e-05
4.86987e-05 1.49787e-05 1.90164e-05
7.22613e-05 -3.08665e-05 0.000104146
-1.18991e-05 5.17284e-05 -5.67695e-06
5.89436e-06 -1.01461e-05 2.08211e-05
-8.80102e-06 -1.29509e-05 0.000166594
0.000152715 -0.000116255 0.000105208
5.69953e-05 0.000256598 2.46755e-05
0.000347871 0.00019739 0.000694215
-6.86362e-05 -0.000193366 -0.000268726
-9.1563e-05 9.52029e-05 2.36994e-05
0.000160125 9.55442e-05 5.20376e-05
0.000328287 4.12863e-05 -8.86569e-07
-1.77545e-05 9.6638e-05 -6.64404e-05
2.92284e-05 -0.000148985 0.000158732
-4.98674e-05 2.11309e-05 -2.75462e-05
5.69081e-05 0.000463058 0.000181801
3.97548e-05 2.25798e-06 -3.51207e-06
-3.68031e-05 3.13406e-06 -4.26023e-05
5.59762e-05 -1.2276e-05 8.17892e-05
-6.15354e-05 1.98332e-05 4.36688e-05
0.00010893 -0.000797454 -0.000909374
0.000612021 -0.00138332 0.00236178
-0.00114674 0.000739531 -0.000567139
2.77905e-05 2.43542e-05 -1.46053e-05
-3.02557e-07 -7.79429e-06 8.33932e-06
0.000110944 0.000632784 0.000754515
0.000316912 -0.000257479 0.00130102
0.000371369 -0.000344237 0.000143539
-0.000703217 0.000193024 -0.000263328
-0.000153484 -0.000540203 -0.00110817
6.49946e-05 0.000385203 -0.000600977
-0.000256314 0.000248286 0.000160821
0.000270076 -0.000517791 -0.000177661
-2.37209e-05 -3.61463e-05 2.32592e-05
0.00120093 -0.000214409 0.000455231
-0.00133729 -0.000361819 -0.00112842
0.000909912 0.000188759 -6.50969e-05
2.71195e-05 4.35278e-05 2.0469e-05
5.34821e-05 5.49706e-05 0.000524893
-0.000281435 7.09879e-05 -0.000207955
-0.00103119 -0.00128501 -0.00185016
-2.9301e-05 3.50485e-05 -0.000461133
7.41801e-05 0.000117912 -7.63216e-05
0.00022226 5.10637e-05 5.57646e-05
1.10246e-06 1.92703e-06 2.9819e-06
-0.000278692 1.20543e-05 -6.82533e-05
-4.10738e-05 -9.13328e-05 5.60482e-05
-6.63401e-05 6.75475e-05 0.000111075
-2.74714e-05 1.94486e-05 -2.74442e-05
-6.5004e-05 -1.78945e-05 2.42996e-05
8.22429e-06 -1.26202e-05 7.4244e-06
3.19734e-05 1.82067e-05 4.21495e-06
-6.84645e-05 0.00014946 4.59743e-05
4.7741e-05 4.55918e-05 3.69174e-05
-1.33194e-05 8.03342e-06 1.11217e-05
-1.66024e-05 -3.83291e-06 2.58165e-05
-9.63176e-06 -1.19071e-05 4.65294e-06
-2.09968e-05 6.97356e-06 -3.21691e-05
-1.38836e-05 -4.59108e-06 8.77506e-06
-6.29369e-05 9.74509e-06 -2.64194e-05
7.87728e-05 -1.28376e-06 -4.31041e-05
-1.12838e-05 3.9473e-05 2.86038e-05
-2.09265e-07 5.44646e-09 2.53175e-06
-1.50472e-05 6.02897e-05 -0.000108473
7.621e-06 2.10421e-05 -2.67827e-06
0.000107449 2.60668e-05 -1.74972e-05
-8.87051e-07 -4.61921e-06 1.09218e-06
-1.41897e-06 -4.25388e-06 -3.65049e-05
6.93861e-06 5.46964e-05 -1.12827e-05
7.64285e-06 -5.02349e-06 6.12614e-06
6.21255e-05 -8.12821e-05 -6.67605e-05
-0.000788369 -0.000505543 -1.71676e-06
2.22208e-05 2.93867e-06 1.86295e-05
0.000700264 0.000417491 0.000220989
-5.25762e-06 1.34759e-05 4.28525e-05
0.000202488 0.000119527 -0.000118445
0.000239434 9.82274e-05 -0.000135841
-0.000120386 0.000105835 -2.76022e-05
-0.000122714 -0.000232815 -0.000160562
-0.000143414 0.000145079 -5.39306e-05
-0.000113472 0.000212394 -0.000855925
-0.00011157 -0.000413498 -0.000427287
-8.35769e-07 9.48591e-05 -0.000335155
-1.09095e-05 -0.000183649 -0.000231036
5.06705e-05 1.26818e-06 4.60865e-06
-0.000208584 5.73741e-05 9.73646e-05
-0.000320234 -4.30873e-06 -8.0013e-06
2.55629e-05 4.56677e-05 -2.1998e-05
5.54928e-06 -1.04235e-05 -3.72412e-05
1.94552e-05 5.05458e-05 -1.06452e-05
6.81348e-05 1.92944e-05 9.93979e-05
-3.49713e-05 -1.70996e-05 -2.45723e-05
8.6821e-05 -6.70125e-05 3.34715e-06
9.46694e-05 -3.80841e-05 8.11933e-05
7.48328e-06 -1.72188e-05 5.32078e-06
1.20191e-05 -3.83092e-05 -5.44418e-07
5.0749e-05 7.59652e-05 8.22569e-05
-0.000155218 8.6481e-05 -5.94561e-05
3.91917e-05 0.000155975 0.000184096
6.64096e-05 -1.93921e-05 -5.94662e-05
5.76108e-06 9.67277e-06 -4.89287e-06
-9.8213e-09 -3.6588e-06 -1.16672e-05
2.27417e-05 -2.08241e-05 2.60881e-05
1.23922e-05 -1.78014e-05 1.40656e-05
-6.0148e-05 2.14787e-05 2.25654e-05
-0.000104153 0.000141988 8.31014e-05
5.59535e-06 1.68596e-06 -3.0546e-07
3.02416e-05 2.76218e-05 -2.32455e-06
-2.80856e-05 4.60884e-05 -3.98102e-05
3.7259e-05 6.56299e-05 5.03441e-05
-1.69145e-05 -1.91858e-05 -3.74002e-05
-1.2743e-05 -8.03383e-06 5.21416e-06
-1.51766e-05 2.61964e-05 2.25912e-05
1.12446e-05 1.70058e-06 1.25364e-05
-2.19889e-05 -9.80637e-06 6.0873e-06
4.22529e-06 -2.77038e-05 1.36714e-05
0.000210747 -0.000160289 -0.000165225
-1.43725e-05 2.95484e-05 -3.19135e-06
-6.00707e-07 4.13991e-06 2.23551e-06
-1.44053e-05 1.91857e-05 -2.85492e-06
-0.000149711 -0.000127036 0.000201249
2.29091e-05 6.71115e-05 4.27204e-05
-7.41008e-06 -4.79194e-05 6.19876e-05
-8.39307e-05 -5.37262e-05 8.88984e-06
3.63165e-05 -1.41596e-05 3.8934e-05
0.000150513 -0.00031863 -0.000523137
-0.00058372 -0.000305054 0.000352822
2.63948e-05 3.57154e-05 -9.63964e-06
0.000177767 4.52861e-05 4.30946e-05
8.75007e-05 7.3403e-05 -3.04612e-05
-8.52667e-05 -0.000140978 7.70749e-05
4.32151e-05 -9.71855e-05 -7.17898e-05
-3.28952e-05 -4.16856e-05 2.93444e-05
-2.84259e-05 -5.3183e-05 -1.68715e-06
-3.48443e-05 -6.23478e-06 8.36924e-06
-1.06765e-05 -1.20872e-05 4.48005e-06
-3.35708e-05 -6.3032e-06 1.51723e-05
8.22085e-05 -0.000109961 -4.65156e-05
-3.76896e-05 1.69721e-05 1.70409e-05
-4.13247e-05 -6.85346e-06 0.00010111
5.67167e-05 -5.02093e-05 5.58207e-05
-1.13361e-05 -1.6391e-05 8.20543e-06
-1.1327e-06 -0.000176853 0.000127605
-1.27079e-06 -0.00123425 0.00126412
-9.90907e-06 -8.47892e-06 -1.92764e-05
3.21195e-05 -5.38762e-05 3.39592e-05
-3.21692e-05 -0.000104498 -5.86794e-06
7.3407e-06 -9.80034e-06 -2.66269e-06
-6.42077e-05 -2.12349e-06 -8.13056e-06
5.60226e-05 8.27701e-06 -8.73536e-05
7.09205e-05 -3.42988e-05 6.03872e-05
5.83707e-05 -5.52779e-05 -0.000112044
-3.294e-07 4.03798e-08 -7.82613e-08
0.000121068 -3.86815e-05 -0.000117444
-0.000375691 -2.26904e-05 -0.000117448
-0.000168687 8.43834e-05 0.000146539
-0.000160611 9.16935e-05 -0.000135121
-0.000138617 -0.000109607 -0.000114601
0.000148423 -7.21384e-06 -0.000134639
5.97071e-05 -2.90262e-05 7.64884e-05
0.000107328 0.000105001 1.25858e-05
-5.45221e-05 -5.62029e-05 -2.7405e-06
-0.000297403 -0.000201139 4.97953e-05
-0.000305916 0.000276967 8.13213e-05
3.78311e-06 1.07709e-05 -1.32008e-06
-0.000585642 -0.000920014 -0.000130786
0.000131606 7.66543e-05 0.000199727
-2.14054e-05 -2.19943e-05 1.21738e-05
8.39997e-05 7.62836e-05 -0.000109217
-3.87076e-05 -4.10775e-05 3.27165e-05
0.000374603 0.000114496 9.09361e-05
-0.00081955 -0.00131378 -0.000232885
-0.000269364 -9.75618e-06 2.01251e-05
-0.000176342 -0.000177072 0.000463778
0.0060934 -0.0013777 1.52748e-05
-0.000236359 -1.99406e-06 0.000104293
-7.66031e-05 5.61812e-05 4.20783e-05
-0.000115852 -0.000433086 -0.000290484
2.82998e-05 0.000119844 -7.93311e-05
3.92867e-05 9.24749e-06 3.62419e-05
-0.000206874 0.000110671 8.62244e-05
-0.00022176 0.000116659 0.000525447
0.000242917 -0.000183188 7.99681e-05
3.34824e-05 -1.48358e-05 -1.21356e-05
0.000781768 -0.000928767 -0.000135921
0.000153123 -0.000110825 0.000187661
0.000114606 -1.1824e-05 -0.000291846
0.000147618 -0.000150269 -0.000264961
0.00034336 -0.000338972 1.86916e-06
0.000166123 -0.00016699 1.15523e-05
0.000167419 -0.000166686 2.16901e-05
0.000165899 0.000324506 -0.00050559
-3.22048e-05 0.000179579 -0.000269392
-8.90585e-06 -9.27764e-06 -5.54525e-06
-0.000444591 0.00036163 -8.19218e-05
3.91567e-05 4.32402e-05 5.84924e-05
2.75583e-05 0.000191148 -0.00058945
9.94307e-06 -5.71077e-06 3.46398e-06
2.76716e-05 -1.74099e-05 2.24438e-05
-5.35146e-05 4.8678e-05 7.18329e-05
0.000182986 -0.000287142 -0.000202796
2.14542e-05 5.7858e-05 -3.32349e-05
-0.000111911 -2.66879e-05 -4.31854e-05
-7.22255e-05 0.000115689 -0.00015478
6.24439e-06 -2.82226e-06 -1.29329e-06
-2.71349e-06 2.53063e-06 -3.53871e-05
6.70494e-05 -0.000107599 7.4256e-05
-1.94059e-05 -2.5337e-06 -8.42554e-05
9.92843e-06 -4.34819e-05 -7.16029e-05
-5.05694e-05 8.824e-05 7.57299e-05
0.000148854 3.07372e-05 0.000179075
-9.77005e-06 4.31715e-06 0.000107976
-1.16246e-05 0.000501692 0.000481555
0.000352901 -0.000106461 0.00023646
0.000370615 0.000352605 0.000180804
-0.00174592 -0.000975474 0.000481857
-0.00288004 0.00290234 -0.00425121
0.00376824 -0.00395927 -0.00417981
0.00198853 -0.00393229 -0.00274615
-0.00173397 -0.00492284 0.000338902
-0.000265641 -0.000429543 5.07058e-05
-0.00058564 -0.00192624 -0.00283506
-0.000364059 9.30601e-05 0.00291817
-0.000733816 0.000541922 0.00127596
-7.68054e-05 3.06752e-05 9.47158e-05
-7.44188e-05 -1.2628e-05 9.41315e-05
0.000113088 -6.90563e-05 1.8701e-05
-1.95157e-05 -1.02968e-05 1.19888e-05
-9.44075e-07 -3.59229e-05 5.57644e-08
8.46411e-05 -0.000197642 0.00018009
0.000159134 0.000303261 0.000219829
-0.000208682 0.000190999 -0.000202593
-8.29429e-05 0.000177518 0.000694987
5.0756e-05 -5.38065e-05 -7.10821e-06
-1.39315e-05 -2.1603e-05 3.28734e-05
3.63793e-05 -3.54168e-05 -2.30545e-05
-1.49066e-05 -6.35591e-05 -3.04888e-05
-0.000123717 -0.000448764 0.000139153
6.85654e-05 -0.00013545 -2.59462e-05
0.000307777 -0.000304485 -0.000125621
-2.68027e-07 2.57014e-07 5.31293e-06
-4.86303e-06 5.21178e-06 -3.27174e-05
1.81033e-06 3.88234e-05 -0.000122883
1.82356e-05 -3.91886e-05 4.76268e-05
-7.2208e-05 1.98504e-05 1.80008e-05
-6.26922e-06 -6.50953e-06 7.65599e-06
-1.83875e-05 1.79186e-05 6.74742e-06
5.10125e-05 5.94844e-05 -9.91188e-06
0.000153896 8.21599e-05 -6.1937e-05
8.13969e-05 -9.2222e-05 0.000302442
0.000416672 -0.000628251 -0.000965865
4.82657e-05 7.25685e-05 -1.83593e-05
1.29076e-05 -1.00402e-05 -0.000314501
0.000158799 6.78874e-05 4.54185e-05
3.51334e-05 -4.94046e-05 -2.76653e-05
4.17968e-06 6.77541e-06 4.78205e-05
0.000555422 -0.000323475 0.000240394
-5.80712e-06 1.14376e-05 9.40265e-06
0.000350154 7.21442e-05 -0.000163149
8.52702e-05 4.917e-05 -6.25958e-05
0.000166981 1.06748e-05 -9.11784e-05
0.000308042 -0.00023065 -0.000276787
1.13611e-06 1.12509e-05 -9.55361e-06
0.000101685 0.000152693 -0.000191773
5.68822e-05 0.000236109 1.00223e-05
0.000462936 0.000601141 0.000455458
-0.000730234 -0.000532737 0.000530076
-0.000191927 0.000777119 0.000670042
0.000119462 -0.000397502 0.000330264
-0.000151748 0.000778513 0.000901943
0.000156831 0.000189416 0.000100443
7.67417e-06 0.000113983 -1.17915e-05
-0.000239951 -0.000382299 -0.000114744
1.90566e-05 4.44428e-06 7.00601e-06
-5.636e-05 2.95968e-05 9.26915e-06
4.90865e-06 5.12882e-06 -3.18084e-05
0.00111045 0.00155588 -0.000196654
-0.00024405 8.41014e-05 -0.00130016
2.77587e-05 9.65683e-05 -6.65635e-05
0.00027097 -0.000346939 0.000411194
-0.000123257 0.000174798 -0.000869111
0.000588431 4.3638e-05 -1.59215e-05
-0.000240351 -0.000143668 -0.000156131
0.0011091 0.000680471 0.000511209
-0.000412838 -0.000228225 -0.000277442
0.000949357 0.00117417 -0.00109631
1.11019e-05 2.74466e-05 0.000167583
0.000159902 -0.000194598 0.0022983
0.00154753 0.000657501 -0.0007947
-5.64213e-05 -0.000102329 0.000188426
-0.000268423 0.000279856 0.0017588
8.14186e-06 -4.51026e-06 9.97416e-07
9.7859e-08 1.59951e-07 -4.58102e-06
8.49057e-06 -8.71626e-06 0.000323066
-0.00017879 -0.000223119 -0.000170734
5.93313e-06 -3.81959e-07 -2.1226e-05
7.35626e-06 -6.83685e-06 -0.000237444
0.000200633 -7.60706e-05 7.45044e-05
-2.26078e-05 -3.04996e-05 2.21932e-05
-6.79966e-06 7.76457e-06 1.32026e-05
-3.82055e-05 4.16833e-05 -8.80848e-07
1.42518e-05 -2.34887e-05 -9.7909e-07
6.18913e-05 3.98519e-05 -1.10045e-05
1.81366e-05 -2.85529e-05 -8.4195e-07
2.51701e-05 2.95557e-05 -5.81316e-05
-8.61734e-05 3.04794e-05 -3.14715e-05
0.000117574 -1.65841e-05 1.02834e-05
-1.06551e-06 5.61814e-06 -3.56387e-07
-1.18179e-05 4.13227e-06 3.95572e-07
2.84313e-05 1.10905e-05 9.78635e-07
-9.72583e-06 -8.37479e-06 2.01159e-06
-0.000162297 -6.59496e-05 -4.06682e-05
7.31833e-06 1.16487e-05 -1.46839e-05
-4.69774e-05 5.3935e-05 -0.000195094
9.47958e-06 -2.88307e-05 3.34615e-07
-1.88492e-06 3.8329e-06 6.87072e-06
-4.38323e-05 3.83666e-05 1.85178e-05
-0.000106188 8.88948e-05 -5.9741e-05
0.000133772 -0.000109852 -0.000344567
-0.000102243 1.7341e-05 1.63183e-07
-9.41222e-06 -1.36169e-05 -1.5778e-05
1.76164e-05 -6.18054e-06 -8.32891e-05
2.08623e-05 -1.8444e-05 -8.02137e-06
0.000314095 4.27282e-05 0.00012485
-6.0253e-05 -2.21718e-05 1.23864e-05
-0.000257457 0.000224088 2.26221e-05
0.000358533 -0.000528607 -0.000343605
0.000479021 0.000334517 0.000718518
-0.000163311 0.000262591 -0.000273357
0.000430033 -0.000645656 -0.000881211
-0.00010664 -1.73625e-05 -1.13155e-06
3.98093e-05 2.00005e-05 -8.5266e-06
0.000240429 -0.000132513 -0.000219732
0.000288954 9.41001e-05 -0.000239564
-5.73837e-05 9.06238e-05 1.8548e-05
-7.80589e-08 2.66945e-06 1.03083e-06
7.42148e-05 -0.000356297 -0.000157656
7.65445e-06 1.03831e-06 -5.4635e-05
1.22925e-06 1.13454e-06 7.43668e-07
-6.77546e-05 0.000197891 8.46109e-06
7.27353e-05 9.10709e-06 0.000153539
-9.40596e-05 8.69314e-05 -6.73924e-05
-4.26204e-05 -7.6624e-05 -5.41901e-05
-6.46765e-06 -1.34195e-05 6.61368e-05
6.41506e-05 -3.5953e-05 3.14257e-05
-7.12948e-05 -6.6994e-05 6.83157e-05
3.76312e-05 7.72033e-05 0.000241581
-4.6976e-07 1.12873e-05 -7.16738e-05
0.00123427 -0.000244884 -0.000505173
-0.000162766 8.58367e-05 0.000124125