<?xml version="1.0"?>
<VTKFile type="UnstructuredGrid" version="0.1" byte_order="LittleEndian" compressor="vtkZLibDataCompressor">
 <UnstructuredGrid GhostLevel="0">
  <Piece NumberOfPoints="1039" NumberOfCells="1039">
   <PointData>
    <DataArray type="Float64" Name="Elongation" NumberOfComponents="3"/>
-5.59747e-06 -3.39016e-06 -1.06368e-05
-3.51418e-05 8.17595e-05 0.000345316
0.000437374 0.000759763 -0.000404043
6.28135e-05 1.15283e-05 -0.000274737
2.84792e-05 3.78532e-05 -2.14695e-05
1.4266e-05 1.19707e-05 -2.1312e-05
-3.76741e-05 -5.50995e-05 5.22364e-07
-5.88763e-06 -1.92696e-05 4.56172e-05
0.000574608 0.000398604 -0.000504561
0.000254422 0.000152492 0.000144005
1.57833e-05 3.05901e-05 -1.77356e-05
4.92826e-06 6.47862e-06 1.65802e-06
0.00268228 0.00279418 0.00280973
-0.000195039 -0.000107117 0.000673107
0.000223643 0.000182579 -0.00014253
0.00108582 0.0014763 -0.00143745
-3.32278e-06 -3.94965e-06 -1.34076e-06
0.000279263 -0.000368723 0.00156842
0.000182488 0.000172163 -0.000410488
0.000115782 0.00042338 -0.00105388
-1.53249e-05 -1.85857e-05 1.23431e-05
-1.96842e-06 -5.24331e-06 1.00516e-05
5.56293e-06 6.32371e-06 -1.46907e-06
9.54081e-06 3.67223e-05 7.19801e-05
0.00213537 0.00266294 0.000259735
-0.00218496 -0.00172855 0.000433495
-9.91315e-06 -9.03074e-06 -2.75913e-06
-2.36948e-05 -2.07618e-05 -4.80068e-06
-0.000367071 -0.00027865 0.000177232
1.42475e-05 6.82652e-06 -1.97475e-05
5.56955e-06 4.99706e-06 -2.22308e-07
-2.51123e-05 2.24114e-05 -0.000161044
-0.0077417 0.00322549 -0.0611375
-1.07417e-05 -5.75157e-06 -1.18495e-05
4.44654e-05 2.8582e-05 4.80094e-05
-4.49059e-06 -4.12269e-06 8.88913e-08
-0.000156257 -0.00024278 -0.00027547
0.00159688 0.00511099 0.0159848
0.00208671 0.00402911 0.0113042
-0.000303017 0.000350425 7.8738e-05
9.01339e-06 -2.46622e-05 2.913e-05
0.000714148 -0.000353456 -0.000468898
-2.39561e-05 1.40076e-05 5.84318e-06
4.35882e-05 -3.07445e-05 1.01078e-05
-0.00141992 0.000468625 0.00404981
3.3866e-06 -3.78568e-06 5.94671e-08
-0.000906091 0.000329234 0.00460742
-4.5512e-06 1.51137e-05 2.30312e-05
0.0001123 0.000172051 -4.50732e-05
2.80519e-05 -1.57477e-05 6.70055e-06
-0.000147691 3.53865e-05 0.00041652
0.000430432 -0.000504701 -7.00126e-05
7.43814e-06 -8.08894e-06 4.54121e-07
1.44378e-05 2.17272e-05 -6.85873e-06
-0.000846486 0.00102164 0.00116044
-4.05379e-05 -2.54869e-05 -7.89121e-06
-7.55977e-06 9.45685e-06 9.26827e-06
0.000356246 -0.00021957 -1.29555e-05
-0.000708117 0.000619602 -0.000127458
1.71868e-06 7.1207e-06 -5.23978e-05
3.51956e-05 -2.73078e-05 -5.14595e-07
-6.62276e-06 4.72446e-06 1.33217e-06
-0.000901974 0.00119213 -0.000654603
4.81677e-05 -8.60042e-05 -6.48416e-05
-0.000482219 0.000259555 -0.000717841
5.12466e-05 -4.27471e-05 -7.60252e-06
-6.43007e-05 5.21528e-05 5.92847e-06
-1.21572e-05 -2.51967e-05 -5.44189e-05
-1.06874e-05 7.65925e-06 -2.04225e-06
3.00422e-05 -4.13824e-05 7.33683e-05
-0.000769018 0.000505112 0.00502083
-1.06366e-05 1.52404e-05 2.00499e-06
-1.68945e-05 2.14012e-05 1.28343e-05
-0.000144557 0.000107911 -3.41398e-05
5.79199e-06 -3.47805e-06 -1.51006e-06
7.41385e-05 -4.04778e-05 -9.67973e-06
-0.000112427 -0.000115675 4.03521e-05
-0.000262267 0.000596795 0.00210312
0.000689876 -0.000400121 7.3452e-05
0.000445483 -0.000132156 0.000474104
-0.000342825 0.000421063 -0.000431162
4.63852e-05 7.25569e-05 4.67302e-05
9.00975e-06 -1.51927e-05 -3.15638e-06
1.07213e-05 -6.79992e-06 -2.22569e-06
-4.50439e-05 2.39884e-05 -1.32622e-05
0.000436604 -0.000675558 -0.000101238
-0.00112743 0.000783712 3.06951e-05
0.00105603 -0.000669114 3.6582e-05
-1.66032e-05 1.00977e-05 7.11594e-07
0.000460328 -0.000285728 9.21588e-08
-2.94275e-05 1.47156e-05 1.39661e-05
0.000398109 -0.000428873 -2.89313e-05
-0.000573164 -0.00178139 -0.0084206
-0.00229351 0.00265557 0.00333518
0.00193893 -0.0011385 0.000227572
-1.59808e-05 9.68457e-06 -7.98669e-07
0.000460234 -0.000285737 -3.12513e-07
-3.72139e-05 3.73769e-05 -1.25661e-05
0.000455881 -0.000514997 -2.89407e-05
-4.04537e-05 0.000352756 0.000243731
0.000882991 -0.00475073 0.00505129
-8.02697e-07 -3.12495e-06 -8.92554e-06
-2.1254e-06 -4.91744e-06 6.29669e-06
0.000163942 -0.000576601 -0.000328777
-2.12357e-06 -4.92023e-06 -6.28856e-06
-0.00393691 -0.0142451 -0.0339744
-8.14378e-05 -7.29309e-05 2.34388e-05
1.93956e-05 -4.26917e-06 -2.34828e-05
-1.66879e-05 -1.8288e-05 -8.15504e-05
-1.04964e-05 3.24435e-06 2.93612e-05
6.40787e-05 1.29091e-05 -2.99416e-05
1.46033e-05 2.06559e-06 1.69253e-05
1.96881e-05 4.33874e-05 5.26289e-05
-1.17392e-05 7.56346e-05 0.00010585
-0.000921231 -9.89915e-05 -3.87895e-05
0.000635863 -0.000346249 -0.000254415
5.22332e-06 1.30698e-05 -1.55598e-06
0.00218523 1.23283e-05 -0.00166033
3.00654e-05 -0.00014817 -0.000394119
3.84597e-05 -0.000217339 -0.000171974
7.86679e-05 -0.000106054 -2.63129e-05
2.84028e-05 -7.23011e-06 4.86519e-05
-0.000525269 -0.000638149 -0.00103883
-0.00025569 -7.00083e-05 -0.000162668
2.99365e-06 0.00026617 0.000270192
9.94705e-05 0.000235813 -0.000334412
-3.2982e-06 4.59462e-06 2.57336e-05
1.15759e-05 7.03708e-06 -1.38092e-06
1.58186e-06 -6.61491e-06 4.01209e-06
-9.59722e-05 -5.95047e-05 -3.99766e-05
0.000380211 4.22246e-05 9.48316e-05
-4.84552e-06 -6.10188e-06 -7.76119e-06
-1.35432e-05 7.98443e-06 -3.93388e-05
-1.94509e-05 2.25319e-05 1.05009e-05
-2.23449e-05 -2.13689e-05 6.08281e-07
7.22408e-05 -6.65156e-06 2.10926e-05
0.000128476 9.39313e-06 -0.000102564
0.000207571 0.000133213 -0.000133085
0.00106346 0.000975565 -0.00018223
4.38491e-05 1.16715e-06 4.1935e-05
-0.000224917 -0.000384063 3.50037e-05
-0.000197736 -0.0011884 0.00103229
0.00136145 0.000685062 0.000521841
6.9353e-05 -0.000471681 -0.00108995
-0.000929778 0.000623724 -5.06062e-05
0.000107468 -0.0019354 -0.000193841
-0.000580626 -0.00548997 0.00285908
0.00517452 -0.000639474 -0.00530757
-0.00838245 -0.000621964 -0.00319477
-7.91232e-05 0.000182166 0.000250306
0.00378507 0.00112633 -0.00103785
0.00967051 0.00848559 -0.00510669
-0.000117838 -2.53706e-05 -5.54307e-05
0.00032558 9.1074e-05 0.000252551
0.00068065 0.000701147 -0.00155216
4.2095e-05 0.000153496 -7.88161e-05
0.000119509 0.000109407 5.77672e-05
-0.000127821 0.000174617 -0.000419868
-1.05144e-05 1.89657e-06 3.9474e-05
3.20077e-06 3.43432e-06 2.64818e-06
3.51954e-06 -3.58245e-06 -8.3935e-06
9.59829e-05 -0.000374719 3.89611e-05
0.000106999 0.000172722 -4.49397e-05
-3.78933e-06 5.93346e-07 -3.13299e-06
-8.21727e-05 -0.00013998 0.000287319
-0.00121517 -0.000121972 0.000430168
-0.00201604 -0.00226316 -0.00294336
1.00285e-05 -3.56042e-05 2.65876e-05
-0.000801892 0.00170156 -0.00209579
-2.47298e-05 5.03248e-05 3.90318e-05
-0.00029813 -0.00218974 0.000799118
-0.0011672 -0.00146322 0.000140552
0.00120538 -0.000805014 4.81732e-05
-2.0917e-05 -1.06495e-05 -1.7972e-05
-6.8706e-06 -3.42612e-05 7.34117e-05
-9.75429e-05 -5.65383e-05 -0.000143212
1.48289e-05 -3.40804e-05 -1.30714e-05
-6.97078e-05 1.06432e-05 -2.67603e-05
-0.00051067 -1.1224e-05 -0.000197297
-0.00012917 -0.000332187 -0.000207605
-0.000538918 -0.000149445 -0.000343062
0.00010096 -6.63074e-05 0.000658393
-0.000340063 2.24261e-05 0.000572913
-6.50333e-07 -1.66655e-06 -1.5248e-05
0.00032954 -0.00016055 -0.000516722
-0.000448686 -0.00111978 -0.000746908
-0.00017245 -0.000102012 3.43394e-05
0.000127522 -7.36512e-06 -0.00049168
8.09575e-05 5.68048e-05 2.54216e-05
-4.52342e-05 -5.05861e-05 3.26823e-05
-1.10535e-05 -6.74483e-06 -1.4868e-05
-4.89799e-05 4.44156e-05 -7.50544e-05
-4.84291e-06 -4.81169e-06 1.64627e-07
-2.14797e-05 -2.09274e-05 -9.58107e-08
3.40389e-05 -0.000103152 -2.36174e-05
-5.85397e-05 4.46756e-05 5.73626e-05
-0.000133002 0.000122145 -0.000107831
-0.000141276 -1.09976e-05 8.42608e-05
-6.94636e-05 -0.000420249 0.000184111
0.000326406 8.21937e-06 0.000183431
3.02646e-05 -1.18618e-05 1.6822e-05
2.0726e-05 7.70781e-06 -9.48271e-06
-0.000737779 0.000228619 -0.000214477
-2.38454e-05 -1.40707e-05 3.32709e-05
0.000183636 3.35823e-05 0.000361781
-9.03408e-06 -2.84244e-05 1.77341e-06
0.000275891 0.000490913 -0.000262543
-0.000136265 0.000173809 0.000189277
-0.000299808 2.16407e-05 -7.46386e-05
0.000521352 0.000564972 -0.000382808
-0.000383051 -0.000172096 0.000119816
-0.000335369 -0.000358674 0.000516082
0.000189642 0.000361958 0.000115771
7.5684e-05 3.58997e-05 0.000279456
-0.00236399 0.00202707 -0.000167708
-0.00219049 0.00129457 0.00151591
-0.000235284 -0.000554349 -0.000805024
7.06814e-05 -4.33517e-05 -2.20415e-06
-5.30712e-06 5.90301e-05 4.62499e-05
-1.94452e-05 8.40992e-06 -2.41833e-06
-0.00662221 -0.00523215 -0.00355818
-0.000202882 -0.000376005 0.000344206
-0.0030514 -0.00302155 0.00682416
0.00152213 0.00230715 0.00171604
-0.000199646 0.000401545 -7.30985e-05
0.000283012 0.000169559 -0.000311948
-0.00277074 -7.08359e-05 0.00103362
0.000103082 0.000401147 -0.000501968
-0.00082858 0.000105488 -0.000952837
-0.00201576 -0.00257297 -0.00441975
-0.00128314 -0.00208178 0.000112023
0.000362865 -0.000257385 0.00874679
0.000613241 -0.000513619 -0.00286029
-0.000123386 0.000177326 -0.000237063
0.00026442 0.000202821 -0.00032335
-0.00246869 -0.00165556 0.00196129
7.28399e-09 -9.84624e-07 -5.55174e-07
0.000572764 -0.000306392 -0.000957118
8.30497e-05 0.000427914 -0.00261924
-0.000396413 6.32578e-05 -0.000383667
-5.19108e-05 1.04593e-05 -1.46026e-06
-0.00011248 3.33257e-05 5.44742e-05
6.89777e-05 -0.000153007 -0.000221507
-9.46822e-05 -8.44884e-05 -0.000172604
3.56897e-05 0.000257163 -0.00063421
-0.000224878 6.62416e-05 -0.000264614
-3.56703e-05 -3.94459e-05 -0.000123463
-8.76024e-05 3.52623e-05 1.39845e-05
1.52962e-05 -1.65944e-05 -1.1747e-05
-0.000248678 0.000433565 -0.000714538
-0.000276017 0.000242223 0.000522322
0.000481443 -3.16423e-05 0.00057811
8.1284e-06 -8.2811e-06 8.19487e-06
-0.000396532 -0.00042453 0.000137182
0.000111627 0.000124717 -2.76868e-06
4.91279e-06 4.28679e-06 -1.60232e-05
0.000354277 0.00011796 9.10841e-05
5.09222e-05 5.67705e-05 -2.7233e-05
-0.000117927 -0.000113718 3.55635e-05
2.70759e-05 -2.45467e-05 -5.91811e-06
0.000198378 0.000236997 -0.000568654
3.05107e-05 5.22121e-05 -6.23772e-05
-2.35222e-05 -0.000167115 -0.000116303
0.00214645 0.000919874 -9.01999e-05
0.000374606 -0.000489756 -0.00134657
0.00238232 0.00761585 -0.00532953
-0.000963721 -0.00013412 0.00034381
0.000984548 0.000205366 0.00675287
3.8089e-05 5.26751e-06 1.40455e-05
-2.80548e-05 -4.26908e-05 -5.37792e-05
-7.11702e-05 6.95472e-05 -7.52175e-05
5.14358e-05 -0.000138947 -5.24204e-06
-3.53747e-05 -9.72298e-06 0.000116893
-0.000161399 0.000150514 0.000154519
0.000140236 0.000256576 -7.6585e-05
0.0019309 -0.000404796 0.00122291
-0.000296727 0.000212155 1.09168e-05
-2.24244e-05 0.000180215 -0.00012224
-3.84567e-05 5.67542e-06 -4.33066e-05
-0.000258315 -0.000367851 -0.00035937
4.84697e-05 -2.4583e-05 1.87781e-05
0.000347815 0.000185943 -5.36061e-05
-1.73497e-05 7.25828e-05 -4.02247e-05
3.46474e-05 6.73557e-05 0.000267664
-9.94412e-05 6.18654e-05 5.3886e-05
1.28338e-05 6.58477e-05 -3.90393e-05
8.28923e-06 1.65979e-05 -8.67917e-06
1.0448e-05 -1.77434e-05 -4.6121e-06
-0.000948358 -2.65808e-05 9.50027e-05
3.5409e-05 -8.43746e-06 1.84012e-05
-1.36107e-05 -3.32634e-06 1.09751e-05
8.96933e-05 -5.04367e-05 1.6979e-05
-9.38705e-06 -2.28177e-05 -4.96313e-05
0.000359759 5.70097e-05 6.76598e-05
-1.23213e-05 -3.02999e-05 -1.08531e-05
7.06446e-08 3.79675e-07 -5.6431e-07
1.36139e-06 -4.31628e-06 4.18537e-06
6.26452e-06 9.66424e-06 3.02213e-05
8.65684e-05 6.81031e-05 4.13192e-05
0.000140544 0.000134584 0.000144161
1.133e-05 3.50083e-06 -2.91797e-06
5.43133e-05 -0.00010046 4.4321e-05
-5.20674e-05 5.34058e-05 -5.21024e-05
-4.80043e-05 -2.35881e-05 3.47455e-05
5.27288e-05 7.78335e-05 0.000233432
1.75722e-05 -5.56265e-06 -3.66372e-06
-0.000180625 0.000472384 0.000114791
-1.46572e-05 -8.55138e-06 1.49762e-05
5.9866e-05 0.00019304 2.68628e-06
0.000357895 0.000131583 -0.000322998
5.14941e-05 3.11302e-05 -3.51051e-05
-6.69109e-06 4.49628e-05 3.9783e-05
0.000230351 0.000353996 2.76499e-05
0.000397126 3.91109e-06 -0.000362038
-0.000198431 2.80048e-05 0.00012381
0.000723043 -0.000220473 -3.58341e-05
1.44526e-06 2.28483e-05 4.87576e-06
0.000201673 0.000393696 -0.000663933
-6.59099e-05 4.67931e-05 -6.89615e-05
1.15597e-05 -2.64826e-07 1.16884e-05
-0.000619595 -0.000199125 0.000184593
-5.2513e-05 -7.04901e-05 8.46573e-06
0.000194497 -0.000184235 -0.000353069
-2.69997e-05 1.4175e-05 1.21777e-05
-8.29838e-05 0.000163774 -1.53199e-05
4.34419e-05 1.05533e-05 3.77385e-05
-2.48693e-06 1.25723e-05 4.84656e-06
0.000154687 -9.53036e-05 -1.92507e-05
4.58733e-05 8.30188e-06 -5.67567e-05
6.75127e-05 0.000155255 0.000560115
6.02521e-05 -0.000466667 0.000362555
-2.23851e-05 -1.33263e-05 -5.11019e-06
-2.07331e-06 -4.48019e-06 -6.48395e-06
0.000202446 1.06384e-05 -0.000328526
-2.01336e-05 5.14407e-06 -2.22987e-06
1.27876e-05 8.9461e-06 -1.38979e-06
-0.00090942 -0.000305924 0.00072908
6.91934e-05 -4.81698e-05 -0.000193608
-0.000200865 -0.000277817 -3.39177e-05
0.000243812 0.000230142 0.000513924
-0.0016516 0.000640214 0.000717342
3.75362e-05 -0.000157663 0.000180161
-7.92171e-05 -0.000185654 0.000337844
9.73087e-05 0.000958182 -0.000115803
0.000483759 -0.00107795 0.00273856
-0.000638051 0.00183539 0.00157159
-0.00117211 0.00422846 0.0017212
-0.000600426 -0.000533768 0.000191947
-0.00228972 0.00149807 0.00145334
0.000236332 0.000410562 0.000776842
-0.000455971 -0.000298871 -0.000104014
-0.00573071 -0.000303835 0.000485379
-2.93758e-05 0.000392239 0.000109831
0.000916411 0.000641366 -0.000621242
0.004382 0.000936899 0.00152348
2.24309e-05 0.00151383 0.00107466
0.0022709 -0.00155783 0.00513087
0.00387945 0.00586804 0.0122365
0.000470143 0.00341951 -0.00354426
0.000224503 -0.000223193 0.00029166
-0.00178749 -0.00620008 -0.00862515
-0.00318793 -0.002228 0.0040636
0.000566012 -0.00596909 -0.00433647
0.000528915 0.0013666 -0.000700233
0.000858844 0.000674178 0.00177825
-4.093e-05 -0.000108908 0.000467394
-0.000965657 -0.00027659 -0.0013269
7.44113e-08 1.86417e-06 6.95722e-06
-0.00010952 0.000228463 -0.000234673
0.000375644 0.000460568 9.3066e-05
3.1648e-05 3.30632e-05 5.47988e-05
-5.81568e-05 5.37271e-05 -7.1402e-07
-0.00176911 0.00182573 -4.93087e-05
8.15927e-05 9.22315e-05 9.60513e-05
-3.27792e-05 2.19426e-05 5.56804e-05
-1.7969e-05 -1.87173e-05 2.2222e-05
-6.27271e-06 -5.61562e-05 0.000136521
7.07354e-05 -0.000235727 -0.000153238
-0.000285012 8.87463e-06 4.1808e-05
2.26362e-05 -0.00019311 9.52246e-06
-2.16056e-05 -5.99272e-05 -1.13297e-05
-3.68342e-05 -5.7537e-05 8.75928e-05
6.4903e-06 1.18504e-05 -2.27717e-05
-1.21482e-05 2.97682e-06 -6.52056e-06
0.000176741 0.000107759 9.64558e-05
-7.18034e-06 1.0705e-05 -3.83127e-05
0.00162731 -0.000198699 -0.000782513
0.000356011 -0.000424669 -0.000304097
-2.64756e-05 5.11925e-05 -5.26308e-05
-0.000679176 0.000159767 6.53929e-05
0.00113052 0.000753384 0.000124849
0.00012273 -0.000789827 -0.000961364
-0.000698575 -0.00122693 0.000145465
0.00471016 0.000136836 0.0070204
5.25325e-05 1.63986e-05 -5.77761e-06
-0.00278404 -0.000618894 0.00315849
0.00495995 0.00378931 0.0104559
0.000816075 0.00137397 -0.00347682
-0.000165274 0.000246844 -0.000108724
-3.58308e-05 -0.000125806 7.0215e-05
0.000806749 -0.00144943 0.00123713
-5.53858e-05 -5.46982e-05 1.58452e-05
0.000429302 0.000969012 0.000150925
-0.00118953 0.00233174 -0.000367464
0.000849593 0.00139612 0.000797186
0.000216534 0.000171825 0.000204055
-0.00181849 -0.000355135 -0.000131639
-0.000275019 -0.00117468 0.00168826
-0.000180125 0.000295918 5.7441e-05
-8.68851e-07 -8.61467e-07 -1.94948e-07
4.4499e-07 -1.005e-06 -1.77016e-06
-6.8423e-05 -6.77907e-05 0.000108391
-2.92287e-06 0.00019992 0.000245613
-2.03962e-05 2.75802e-05 -4.78507e-05
1.09224e-05 8.26812e-06 4.38953e-06
1.40791e-05 -3.28756e-06 -3.60837e-05
0.00016111 -0.0002027 0.00286518
0.000658092 -0.000269276 0.000793118
0.00015403 -6.26077e-05 -2.6543e-05
0.00317292 0.00241192 -0.000150245
-0.000696683 0.00106956 -0.000631668
-0.000124358 -0.000217941 -0.000311491
0.00245248 0.00189639 -0.000158363
8.90715e-05 0.000117019 1.90185e-05
0.000870634 -0.000643255 -3.17169e-05
0.000209085 0.00100552 8.3063e-05
0.000166345 -4.46047e-05 -6.72413e-05
-0.000230993 0.000119338 7.6731e-05
-2.68422e-06 -2.88951e-05 -3.33446e-05
3.16973e-05 -1.08362e-05 -1.37961e-05
1.05941e-05 6.24888e-06 2.13255e-06
-3.37552e-05 -3.3702e-05 1.03781e-05
-0.000442176 0.000112939 0.000162254
-0.000318709 -8.73999e-05 0.00018422
-0.00024365 -0.000254543 0.000254576
0.000182695 -0.000108931 -0.000178984
1.78276e-05 2.36737e-05 3.12453e-05
-0.000160605 -3.40009e-05 -3.32157e-06
3.79276e-05 6.44975e-05 -0.000252166
1.10916e-05 2.66152e-05 -6.98222e-05
0.000166662 -0.000186524 3.81126e-05
-0.00021422 -0.000295862 0.000141437
3.61315e-05 -0.00172707 0.00232614
0.000307479 0.000148412 0.000315065
0.000100511 0.000122468 2.21043e-05
-0.000134803 0.000226454 -0.000226958
3.4291e-05 -0.000208049 0.000169358
0.00686988 -0.00179144 -0.000262987
1.82746e-06 -3.01883e-06 5.77383e-06
2.6086e-05 -1.2604e-05 -1.05491e-06
-0.000163138 0.00018723 -8.77409e-05
2.88419e-05 -2.29443e-05 1.59948e-05
-0.00062717 -0.00206733 -0.00231231
-0.00242447 -6.99958e-05 -0.00305412
-0.00164813 0.00027895 -0.00199768
0.0011309 -0.000608625 0.000851493
-1.43992e-05 -3.33568e-05 -6.84505e-06
-1.58791e-05 -0.00012627 0.000358919
1.18554e-05 -2.04112e-06 4.52151e-06
-7.96299e-05 -0.000102895 0.000161612
0.000124119 -0.000112288 -9.40887e-05
8.49672e-06 0.00039479 -0.000140935
-1.09689e-05 1.16641e-05 9.80378e-05
0.000116504 0.000121621 0.000116331
0.000120854 0.000162362 6.029e-05
-1.85446e-05 -3.60915e-05 5.01109e-06
-0.000186486 0.000330529 0.000119467
-0.000313765 0.000738232 -0.00257295
0.000583804 9.32312e-05 0.000861418
-0.000155474 0.000116501 -0.000273867
0.000173059 0.000552595 -0.00165357
0.00096134 0.000395163 -0.000409249
-0.000478484 -0.00190098 -0.00256396
-0.00188928 -0.000731458 -0.00015138
0.00019924 -1.67013e-05 -0.000310169
-5.36572e-05 9.78912e-06 -4.13348e-05
5.69226e-07 4.01177e-07 7.25071e-06
-5.21072e-06 -2.55915e-05 -3.12761e-05
-0.000409621 0.000345266 0.000686539
0.000455213 6.34988e-05 0.000211033
1.68425e-05 -8.80755e-05 -1.47491e-05
-0.000414842 -0.000119934 9.6333e-05
-4.38353e-05 1.39936e-06 -4.8586e-05
1.91845e-07 8.13396e-06 -7.2231e-06
3.25052e-06 -3.18636e-06 2.4115e-07
-0.000304655 -0.000192085 3.79793e-06
-0.000208033 0.000342396 0.000114105
1.78392e-05 2.44261e-05 1.13868e-05
-4.61575e-06 1.3304e-05 -8.34159e-06
-2.98501e-05 1.11008e-05 -1.36259e-06
-7.24259e-06 3.68333e-05 -8.09667e-06
-0.000101636 -4.18925e-05 -0.000199191
9.55451e-05 5.12858e-06 -4.30969e-05
5.16125e-05 0.00106884 0.000108651
2.94473e-05 5.44777e-06 4.69397e-05
8.18896e-05 9.97121e-07 -6.19339e-05
-7.07749e-06 1.58041e-05 -9.74634e-07
6.11525e-05 -0.000185666 1.67694e-05
5.45573e-05 3.80588e-06 2.30608e-05
0.00204307 -0.00126769 0.000169691
0.00065598 0.00160786 0.00311655
-0.00159416 4.60731e-05 0.000904559
0.000100289 -6.58142e-05 0.000319124
0.000133302 0.000125729 -1.33195e-06
1.87371e-05 1.55637e-06 -1.71035e-05
-1.91201e-05 -1.76887e-05 -2.35078e-05
-0.000659256 -0.00092061 0.000368088
-0.0003655 -0.000229203 -0.000254152
0.000230084 0.00018917 -0.000406076
5.73855e-05 0.000293581 -0.00011387
-5.2373e-07 8.07991e-08 -6.75485e-06
-5.51625e-05 -4.22608e-05 6.54213e-05
-1.41636e-05 -4.26571e-06 -7.2495e-06
-1.91783e-05 -4.44204e-05 5.20552e-05
-2.55244e-05 -2.02038e-05 -3.04695e-05
0.00102463 -0.00336206 -0.0026869
-3.0197e-05 -1.195e-05 -3.21876e-05
-0.000313977 0.000230897 0.000369369
4.26474e-05 6.40974e-05 -3.20338e-05
5.12356e-05 0.000488387 -0.000129297
2.13765e-05 -8.51041e-05 3.90968e-05
0.0002926 0.000199755 -0.000159196
4.6898e-05 -3.0942e-06 -1.51394e-05
2.89042e-06 0.000102477 6.57139e-05
5.77633e-06 -9.82847e-05 -3.266e-05
-7.61502e-05 -3.93736e-05 -2.09549e-05
-5.50736e-06 6.55954e-05 -2.00594e-06
5.25577e-05 -0.00015634 0.000227866
-0.000284967 0.000265603 -1.80649e-07
-6.20434e-06 1.72538e-05 -2.5818e-05
-1.88122e-05 1.71997e-05 -1.06377e-05
-0.000243762 -3.55303e-05 -0.000288037
-5.97052e-05 5.18404e-05 -4.91935e-07
0.000483076 -0.000311545 -0.000265875
-0.000122714 6.60502e-06 2.59794e-05
-2.26813e-05 -5.42461e-06 8.72396e-06
0.000144351 1.17538e-07 -6.03822e-05
0.000483807 0.000211848 -0.00043558
-2.3025e-05 1.20036e-05 2.43156e-05
0.000759927 -5.47665e-06 -0.000187248
0.000550112 -0.000566708 -7.31961e-06
6.39551e-05 0.000200827 0.00018587
3.18748e-06 1.66538e-06 -3.10398e-06
1.79594e-06 2.1175e-06 -1.2926e-06
4.14392e-06 8.59434e-06 -1.58059e-05
-6.05923e-05 -9.45547e-06 -4.23246e-05
-5.94916e-05 7.4441e-05 -4.29521e-05
5.58837e-06 9.64037e-06 1.1194e-05
0.000130868 7.37968e-05 -2.55515e-05
-0.000380975 0.000117784 0.000208945
-0.000142703 -9.8485e-06 -1.40058e-05
-0.000134861 -0.000203743 -3.32138e-05
0.000295784 -0.000301585 -0.000201989
-0.000115546 -9.94526e-05 -0.000204698
-0.000323601 -2.39445e-05 0.000315301
-4.97614e-05 -1.69112e-05 -4.67615e-05
-6.85556e-05 -0.000154422 -3.25562e-05
-3.28702e-07 -6.61211e-05 5.71954e-05
8.5828e-05 -6.1047e-06 -8.12119e-05
3.14428e-06 2.19687e-05 -2.34661e-06
-7.47495e-06 1.27919e-05 1.34946e-05
0.00017243 -0.000154646 0.000408616
0.000469655 3.44508e-05 6.95847e-05
-5.04308e-05 -4.13123e-05 -9.82726e-06
-5.87112e-05 4.78237e-05 8.39786e-05
-1.11634e-05 1.44749e-05 1.23419e-05
3.09325e-06 -2.97018e-05 -2.05717e-05
-3.97387e-05 -2.13697e-05 1.88029e-06
0.000126903 7.68248e-05 -2.06719e-05
-0.000249651 0.000549651 8.45935e-05
3.30622e-05 2.3175e-05 -2.63818e-05
0.000198426 7.51563e-05 -0.000146063
0.000521457 -0.000976987 -0.000499081
4.41855e-06 1.23603e-06 4.11791e-07
-7.0198e-07 4.88189e-06 1.52659e-06
2.07571e-06 4.74909e-07 5.62418e-06
2.39074e-05 4.82706e-06 3.20833e-06
2.16327e-05 3.71802e-05 -2.32224e-05
-0.000526925 -0.000279167 -2.21441e-05
-1.31873e-05 1.60998e-05 -9.89029e-06
-1.5248e-06 7.23082e-06 -2.88887e-06
-5.11883e-05 3.32255e-05 2.32182e-05
1.66047e-05 1.23296e-06 4.96883e-06
6.80462e-06 -9.62017e-06 1.07258e-05
5.18725e-06 -5.82991e-06 -3.88675e-06
-5.43857e-07 -1.1615e-05 -8.58717e-06
6.41162e-05 9.83416e-05 -2.67438e-05
-5.55429e-05 -7.51037e-05 -4.09472e-06
-2.89058e-06 1.80619e-06 -3.63422e-06
2.7381e-06 4.36607e-06 3.69039e-07
-2.55027e-06 6.65997e-07 -3.22503e-06
-1.3316e-05 -4.77364e-05 3.425e-05
-0.00065814 2.29046e-05 -2.47968e-05
-1.99543e-05 -1.94957e-05 1.14599e-07
-3.22936e-05 -3.33367e-05 2.79051e-07
0.00332337 0.00429482 0.00141285
0.00406645 0.003009 1.10463e-05
-2.01744e-05 -6.61724e-05 0.000154665
-0.00115423 -0.00116441 0.000786577
-0.000530863 0.000110753 -0.000364766
0.000176308 0.00135933 0.00158029
0.00267202 0.00222018 0.00985796
-0.00380556 8.27541e-05 -0.00377966
0.000505916 0.00436744 0.00257187
1.07212e-05 1.26333e-05 -2.06631e-05
-0.00520053 -0.00478822 -0.00628156
8.34812e-05 -5.732e-05 -7.59014e-06
-0.000182561 0.000305821 -3.75077e-05
5.14491e-05 0.000150849 -3.75612e-05
0.00127195 0.000241942 -0.00149896
-0.00192028 0.00235102 -0.00200612
0.000801126 0.000985427 -0.000588437
8.91992e-06 -0.000582425 0.00164836
-0.000331475 0.000399289 -0.000748074
0.00356627 0.000971344 0.000469519
0.000206454 7.49125e-05 -0.000157674
-0.000110785 -2.41905e-05 -0.000381184
-0.00112886 0.000342627 0.000351055
1.15036e-06 -0.000111603 0.000165446
-0.000247916 3.46554e-07 -0.000259201
0.000127497 0.000159754 -8.92377e-05
0.0012199 0.00126148 0.000874541
-0.000188145 0.000146297 -4.95034e-05
-0.000180443 -0.000180456 1.55967e-07
4.08128e-05 3.53717e-05 -6.21925e-06
0.000476198 -0.000490078 -0.0002562
0.000114415 -0.000159547 -7.51947e-05
2.87419e-05 1.35779e-05 2.84929e-05
-0.000950612 0.000185024 0.000344236
-7.32535e-05 -0.000371353 0.000130852
-4.51009e-06 -4.61015e-06 -0.000180128
0.00161623 0.000249889 0.000738931
3.1909e-05 1.68236e-05 0.00110417
0.000249833 0.000356252 0.000750647
-0.000574594 0.00082402 0.00121174
-0.000137322 0.000100874 -0.000479018
-0.000844704 -9.45345e-05 -2.39314e-05
-3.40993e-05 -0.00124184 0.000146282
0.000214687 0.000178139 0.000583326
0.000399232 -0.00179662 -0.00203721
8.28339e-05 0.000115082 0.000210659
-0.00181195 -0.000281092 0.00117372
-3.33502e-05 0.000228019 1.87143e-05
-0.00324531 -0.00164519 -0.00286568
6.54022e-05 0.00073254 0.000439361
0.000221869 0.00253645 0.00744744
0.00220002 0.000351494 0.00054365
0.000317863 0.000193318 0.000219626
-0.000597889 0.000114402 6.26367e-05
-0.000319155 0.00087228 -0.000537875
-0.000790773 0.000229558 -0.000160383
0.000396401 -3.3373e-05 -0.00012197
-0.000233755 -6.67466e-05 0.000197843
-8.11438e-05 2.13887e-05 -2.20963e-05
7.03879e-05 -0.000689783 -0.0010868
0.00238052 0.0011217 0.001193
-0.000691465 0.000569927 -9.90085e-05
-1.14488e-05 0.000185648 0.000322363
-4.83762e-06 -4.85826e-05 -2.28089e-05
0.000641508 -0.00039365 -8.9708e-05
-0.000716455 -0.000159961 0.000213351
0.000739147 0.00133472 0.000791918
0.00178637 0.00461325 0.00109994
-0.000732944 -4.66706e-05 -0.000138943
0.000106837 0.000220394 -0.000151907
-0.000100569 1.88578e-05 -0.000238964
0.000146852 0.000134794 6.53644e-05
-7.14016e-05 0.000144305 5.51572e-05
-0.000151407 0.000111254 4.38272e-05
-0.000739785 7.03275e-05 -0.000142095
-0.000145344 0.000118558 -0.000407044
-0.000163138 6.90027e-05 -0.00011402
-3.61565e-05 -3.57838e-05 5.97854e-06
4.81942e-06 -2.90488e-06 2.39654e-05
1.14981e-05 -5.0673e-05 -2.20094e-05
0.000135332 0.00012998 -6.93441e-05
4.21298e-06 3.91875e-06 1.03912e-05
2.34875e-06 7.60735e-06 -1.3917e-06
3.92072e-06 4.92543e-06 7.90536e-06
0.000101208 6.39212e-06 -2.48543e-05
0.000126485 -2.83073e-05 8.89773e-05
0.000161262 8.10604e-05 -1.7889e-06
0.000651505 -0.000192759 8.49658e-05
-0.000189155 -0.000469964 0.00122592
0.000606543 -0.000276217 -0.00275269
-0.00164243 -0.00288986 0.00172318
0.000860871 8.23478e-05 0.000920168
-0.000336894 -0.000105688 7.43904e-05
0.000174101 0.000113141 -0.000194878
-3.33381e-05 3.5172e-05 2.57387e-05
0.000557383 -0.000133886 -4.97972e-05
0.00064538 0.00258377 0.00372074
-0.000641846 0.000123804 0.00133383
0.00038046 0.00356842 -0.000862088
-0.000195907 0.000443602 -0.000130323
-0.000200027 -0.000285438 -0.000406958
0.000795131 -0.000231773 -0.000923882
0.00134883 -0.00231577 0.00616113
8.24918e-05 0.000113756 -0.000110315
0.00167272 0.00124511 -0.00101354
0.000604869 -0.00137269 0.000561666
-0.000719249 -0.00237362 0.00146108
-0.000111 0.000139782 0.000214693
-0.000888516 -0.000516442 -2.79208e-05
-1.09417e-05 0.000514702 -8.4298e-05
-0.00112733 -0.000388667 -9.42877e-05
0.00119408 -0.000971714 6.25889e-06
-0.00126249 -0.00209048 0.00252975
-0.0023918 0.000137817 0.00061361
3.26326e-05 2.64295e-05 -2.33485e-05
2.09865e-05 -1.94556e-05 -1.80291e-05
-2.63365e-05 0.000108369 -4.66548e-05
-0.000268494 -0.000156431 -1.53688e-05
0.000559598 0.000251041 0.00027791
0.0038199 0.00119984 0.0035873
-4.85223e-05 -8.12357e-05 -4.37775e-05
3.14573e-06 2.35747e-05 -7.98675e-05
2.27756e-05 -4.41452e-05 -8.11049e-05
-2.69436e-05 -1.68873e-05 0.000223604
-4.19749e-05 -8.73649e-05 9.15546e-05
-6.19391e-05 0.000389438 -5.38356e-05
1.60977e-05 -4.46824e-06 7.55811e-06
0.00064275 4.14464e-05 7.96272e-06
4.54579e-05 2.67913e-05 -8.09971e-05
0.000139858 0.000203972 0.000207565
7.10538e-06 1.85405e-05 2.47263e-07
7.17557e-06 4.40765e-06 3.31402e-05
-6.10512e-06 -2.57066e-05 0.000657146
-0.000105902 -0.000162339 -7.15186e-05
-0.000231029 0.000216345 -7.27684e-05
-3.46504e-05 3.4486e-05 -6.68523e-06
-7.61336e-06 -1.63384e-06 5.8762e-06
-3.46203e-06 -1.99744e-06 7.57131e-06
0.000214529 0.000376387 -9.49127e-05
-4.90687e-05 -4.98887e-06 1.2604e-05
-0.000331617 5.04563e-05 -3.06403e-05
-0.000611543 0.000896074 -0.000940153
0.000158195 7.74591e-05 1.3916e-05
-7.08566e-05 -1.37359e-05 -2.25421e-06
1.31515e-05 4.20842e-05 3.19891e-05
0.00050575 -0.000126578 -6.65262e-05
6.82054e-05 0.000242446 0.00085082
-0.000219651 -0.000427247 0.000710111
-0.000238417 -0.000252118 -0.000313354
0.00229415 0.000883316 -0.000751736
0.000750489 -0.00069817 -0.00210978
0.00317245 0.00188825 -0.00622589
8.35862e-05 -3.75667e-05 0.000139973
2.23384e-05 0.000116948 -2.90601e-06
-0.000337644 3.87944e-05 8.34378e-05
-8.00216e-05 -0.000101592 6.88469e-05
0.000151425 0.00034981 0.00359553
-0.000235918 0.000229136 -1.06701e-05
-5.56009e-07 -3.7157e-05 0.000132499
4.19945e-05 -2.73917e-06 1.18193e-05
-0.000146152 -3.92673e-05 0.000263676
0.000121952 -0.000276314 0.000212284
-0.000339505 -0.000197724 9.88067e-05
-4.66368e-05 1.48851e-05 1.26826e-05
-0.000799886 -0.000795752 -5.92315e-05
0.000498614 -0.0011342 0.000183607
-0.000177332 0.000237671 6.25662e-05
-0.000158434 -0.000436213 -0.000712395
0.000419412 -0.000340913 -0.000361618
-5.32149e-05 -7.53526e-05 3.05182e-05
-7.95694e-05 -2.01179e-06 6.87988e-05
-0.00127451 4.18896e-05 0.00155009
-0.000187614 -0.00157588 -0.00126931
-0.000280581 -0.000209006 -0.000428331
-0.000670924 0.000203806 -0.000372021
0.000296005 0.000185148 0.000161096
-0.000199512 -0.000186458 -0.000362916
-0.000833675 0.0035565 0.00324337
-0.00189995 0.000360347 -0.00251403
0.000732438 0.000776311 0.000424644
-8.25444e-05 -2.74739e-06 3.8046e-05
0.000617507 -0.000671239 8.64302e-05
-7.13331e-05 8.52535e-05 -3.51535e-05
0.000203114 4.05353e-05 -8.00069e-05
-0.000104832 -0.000105924 8.89736e-05
2.38837e-05 4.06022e-05 -1.3908e-05
0.000286732 -3.20166e-05 -0.000115036
-0.000248545 -0.000162156 1.94767e-05
1.07365e-05 -1.54023e-05 1.10936e-06
-7.10865e-07 -2.41237e-06 3.34618e-05
6.94458e-05 -5.95979e-05 6.99886e-05
-0.000114995 9.27576e-05 -5.63714e-06
-0.000156193 9.64452e-05 -0.000234164
-6.95233e-05 -5.28784e-05 -0.000139024
-3.34281e-08 3.46215e-06 -1.24865e-06
-9.47829e-05 -2.30374e-05 -4.34627e-05
0.000109451 -2.13028e-05 7.43733e-05
-4.68166e-05 0.000221326 -0.000417901
-0.000193817 5.14756e-05 0.000346548
3.43024e-05 -0.00022604 0.000139301
-3.85085e-05 2.25028e-06 -3.48137e-06
5.50136e-06 1.60912e-05 -1.57853e-06
3.88767e-06 1.18798e-05 -9.49392e-07
1.50332e-05 -2.71927e-05 2.73302e-05
0.00024993 -0.000279868 0.000148283
7.56337e-05 -2.4867e-05 1.32212e-05
2.80887e-06 3.97902e-05 -2.50478e-05
-1.64762e-05 -5.8505e-05 1.31743e-06
-7.14411e-06 7.12573e-06 1.35403e-05
-0.000422911 0.000571431 0.000286536
1.72483e-05 -1.11116e-07 3.26426e-05
3.93754e-05 -8.53663e-06 5.05722e-06