<?xml version="1.0"?>
<VTKFile type="UnstructuredGrid" version="0.1" byte_order="LittleEndian" compressor="vtkZLibDataCompressor">
 <UnstructuredGrid GhostLevel="0">
  <Piece NumberOfPoints="880" NumberOfCells="880">
   <PointData>
    <DataArray type="Float64" Name="radius"/>
0.1
0.1
0.1
0.1
0.1
0.1
0.1
0.1
0.1
0.1
0.1
0.1
0.1
0.1
0.1
0.1
0.1
0.1
0.1
0.1
0.1
0.1
0.1
0.1
0.1
0.1
0.1
0.1
0.1
0.1
0.1
0.1
0.1
0.1
0.1
0.1
0.1
0.1
0.1
0.1
0.1
0.1
0.1
0.1
0.1
0.1
0.1
0.1
0.1
0.1
0.1
0.1
0.1
0.1
0.1
0.1
0.1
0.1
0.1
0.1
0.1
0.1
0.1
0.1
0.1
0.1
0.1
0.1
0.1
0.1
0.1
0.1
0.1
0.1
0.1
0.1
0.1
0.1
0.1
0.1
0.1
0.1
0.1
0.1
0.1
0.1
0.1
0.1
0.1
0.1
0.1
0.1
0.1
0.1
0.1
0.1
0.1
0.1
0.1
0.1
0.1
0.1
0.1
0.1
0.1
0.1
0.1
0.1
0.1
0.1
0.1
0.1
0.1
0.1
0.1
0.1
0.1
0.1
0.1
0.1
0.1
0.1
0.1
0.1
0.1
0.1
0.1
0.1
0.1
0.1
0.1
0.1
0.1
0.1
0.1
0.1
0.1
0.1
0.1
0.1
0.1
0.1
0.1
0.1
0.1
0.1
0.1
0.1
0.1
0.1
0.1
0.1
0.1
0.1
0.1
0.1
0.1
0.1
0.1
0.1
0.1
0.1
0.1
0.1
0.1
0.1
0.1
0.1
0.1
0.1
0.1
0.1
0.1
0.1
0.1
0.1
0.1
0.1
0.1
0.1
0.1
0.1
0.1
0.1
0.1
0.1
0.1
0.1
0.1
0.1
0.1
0.1
0.1
0.1
0.1
0.1
0.1
0.1
0.1
0.1
0.1
0.1
0.1
0.1
0.1
0.1
0.1
0.1
0.1
0.1
0.1
0.1
0.1
0.1
0.1
0.1
0.1
0.1
0.1
0.1
0.1
0.1
0.1
0.1
0.1
0.1
0.1
0.1
0.1
0.1
0.1
0.1
0.1
0.1
0.1
0.1
0.1
0.1
0.1
0.1
0.1
0.1
0.1
0.1
0.1
0.1
0.1
0.1
0.1
0.1
0.1
0.1
0.1
0.1
0.1
0.1
0.1
0.1
0.1
0.1
0.1
0.1
0.1
0.1
0.1
0.1
0.1
0.1
0.1
0.1
0.1
0.1
0.1
0.1
0.1
0.1
0.1
0.1
0.1
0.1
0.1
0.1
0.1
0.1
0.1
0.1
0.1
0.1
0.1
0.1
0.1
0.1
0.1
0.1
0.1
0.1
0.1
0.1
0.1
0.1
0.1
0.1
0.1
0.1
0.1
0.1
0.1
0.1
0.1
0.1
0.1
0.1
0.1
0.1
0.1
0.1
0.1
0.1
0.1
0.1
0.1
0.1
0.1
0.1
0.1
0.1
0.1
0.1
0.1
0.1
0.1
0.1
0.1
0.1
0.1
0.1
0.1
0.1
0.1
0.1
0.1
0.1
0.1
0.1
0.1
0.1
0.1
0.1
0.1
0.1
0.1
0.1
0.1
0.1
0.1
0.1
0.1
0.1
0.1
0.1
0.1
0.1
0.1
0.1
0.1
0.1
0.1
0.1
0.1
0.1
0.1
0.1
0.1
0.1
0.1
0.1
0.1
0.1
0.1
0.1
0.1
0.1
0.1
0.1
0.1
0.1
0.1
0.1
0.1
0.1
0.1
0.1
0.1
0.1
0.1
0.1
0.1
0.1
0.1
0.1
0.1
0.1
0.1
0.1
0.1
0.1
0.1
0.1
0.1
0.1
0.1
0.1
0.1
0.1
0.1
0.1
0.1
0.1
0.1
0.1
0.1
0.1
0.1
0.1
0.1
0.1
0.1
0.1
0.1
0.1
0.1
0.1
0.1
0.1
0.1
0.1
0.1
0.1
0.1
0.1
0.1
0.1
0.1
0.1
0.1
0.1
0.1
0.1
0.1
0.1
0.1
0.1
0.1
0.1
0.1
0.1
0.1
0.1
0.1
0.1
0.1
0.1
0.1
0.1
0.1
0.1
0.1
0.1
0.1
0.1
0.1
0.1
0.1
0.1
0.1
0.1
0.1
0.1
0.1
0.1
0.1
0.1
0.1
0.1
0.1
0.1
0.1
0.1
0.1
0.1
0.1
0.1
0.1
0.1
0.1
0.1
0.1
0.1
0.1
0.1
0.1
0.1
0.1
0.1
0.1
0.1
0.1
0.1
0.1
0.1
0.1
0.1
0.1
0.1
0.1
0.1
0.1
0.1
0.1
0.1
0.1
0.1
0.1
0.1
0.1
0.1
0.1
0.1
0.1
0.1
0.1
0.1
0.1
0.1
0.1
0.1
0.1
0.1
0.1
0.1
0.1
0.1
0.1
0.1
0.1
0.1
0.1
0.1
0.1
0.1
0.1
0.1
0.1
0.1
0.1
0.1
0.1
0.1
0.1
0.1
0.1
0.1
0.1
0.1
0.1
0.1
0.1
0.1
0.1
0.1
0.1
0.1
0.1
0.1
0.1
0.1
0.1
0.1
0.1
0.1
0.1
0.1
0.1
0.1
0.1
0.1
0.1
0.1
0.1
0.1
0.1
0.1
0.1
0.1
0.1
0.1
0.1
0.1
0.1
0.1
0.1
0.1
0.1
0.1
0.1
0.1
0.1
0.1
0.1
0.1
0.1
0.1
0.1
0.1
0.1
0.1
0.1
0.1
0.1
0.1
0.1
0.1
0.1
0.1
0.1
0.1
0.1
0.1
0.1
0.1
0.1
0.1
0.1
0.1
0.1
0.1
0.1
0.1
0.1
0.1
0.1
0.1
0.1
0.1
0.1
0.1
0.1
0.1
0.1
0.1
0.1
0.1
0.1
0.1
0.1
0.1
0.1
0.1
0.1
0.1
0.1
0.1
0.1
0.1
0.1
0.1
0.1
0.1
0.1
0.1
0.1
0.1
0.1
0.1
0.1
0.1
0.1
0.1
0.1
0.1
0.1
0.1
0.1
0.1
0.1
0.1
0.1
0.1
0.1
0.1
0.1
0.1
0.1
0.1
0.1
0.1
0.1
0.1
0.1
0.1
0.1
0.1
0.1
0.1
0.1
0.1
0.1
0.1
0.1
0.1
0.1
0.1
0.1
0.1
0.1
0.1
0.1
0.1
0.1
0.1
0.1
0.1
0.1
0.1
0.1
0.1
0.1
0.1
0.1
0.1
0.1
0.1
0.1
0.1
0.1
0.1
0.1
0.1
0.1
0.1
0.1
0.1
0.1
0.1
0.1
0.1
0.1
0.1
0.1
0.1
0.1
0.1
0.1
0.1
0.1
0.1
0.1
0.1
0.1
0.1
0.1
0.1
0.1
0.1
0.1
0.1
0.1
0.1
0.1
0.1
0.1
0.1
0.1
0.1
0.1
0.1
0.1
0.1
0.1
0.1
0.1
0.1
0.1
0.1
0.1
0.1
0.1
0.1
0.1
0.1
0.1
0.1
0.1
0.1
0.1
0.1
0.1
0.1
0.1
0.1
0.1
0.1
0.1
0.1
0.1
0.1
0.1
0.1
0.1
0.1
0.1
0.1
0.1
0.1
0.1
0.1
0.1
0.1
0.1
0.1
0.1
0.1
0.1
0.1
0.1
0.1
0.1
0.1
0.1
0.1
0.1
0.1
0.1
0.1
0.1
0.1
0.1
0.1
0.1
0.1
0.1
0.1
0.1
0.1
0.1
0.1
0.1
0.1
0.1
0.1
0.1
0.1
0.1
0.1
0.1
0.1
0.1
0.1
0.1
0.1
0.1
0.1
0.1
0.1
0.1
0.1
0.1
0.1
0.1
0.1
0.1
0.1
0.1
0.1
0.1
0.1
0.1
0.1
0.1
0.1
    <DataArray type="Float64" Name="objectIndex"/>
0
1
2
3
4
5
6
7
8
9
10
11
12
13
14
15
16
17
18
19
20
21
22
23
24
25
26
27
28
29
30
31
32
33
34
35
36
37
38
39
40
41
42
43
44
45
46
47
48
49
50
51
52
53
54
55
56
57
58
59
60
61
62
63
64
65
66
67
68
69
70
71
72
73
74
75
76
77
78
79
80
81
82
83
84
85
86
87
88
89
90
91
92
93
94
95
96
97
98
99
100
101
102
103
104
105
106
107
108
109
110
111
112
113
114
115
116
117
118
119
120
121
122
123
124
125
126
127
128
129
130
131
132
133
134
135
136
137
138
139
140
141
142
143
144
145
146
147
148
149
150
151
152
153
154
155
156
157
158
159
160
161
162
163
164
165
166
167
168
169
170
171
172
173
174
175
176
177
178
179
180
181
182
183
184
185
186
187
188
189
190
191
192
193
194
195
196
197
198
199
200
201
202
203
204
205
206
207
208
209
210
211
212
213
214
215
216
217
218
219
220
221
222
223
224
225
226
227
228
229
230
231
232
233
234
235
236
237
238
239
240
241
242
243
244
245
246
247
248
249
250
251
252
253
254
255
256
257
258
259
260
261
262
263
264
265
266
267
268
269
270
271
272
273
274
275
276
277
278
279
280
281
282
283
284
285
286
287
288
289
290
291
292
293
294
295
296
297
298
299
300
301
302
303
304
305
306
307
308
309
310
311
312
313
314
315
316
317
318
319
320
321
322
323
324
325
326
327
328
329
330
331
332
333
334
335
336
337
338
339
340
341
342
343
344
345
346
347
348
349
350
351
352
353
354
355
356
357
358
359
360
361
362
363
364
365
366
367
368
369
370
371
372
373
374
375
376
377
378
379
380
381
382
383
384
385
386
387
388
389
390
391
392
393
394
395
396
397
398
399
400
401
402
403
404
405
406
407
408
409
410
411
412
413
414
415
416
417
418
419
420
421
422
423
424
425
426
427
428
429
430
431
432
433
434
435
436
437
438
439
440
441
442
443
444
445
446
447
448
449
450
451
452
453
454
455
456
457
458
459
460
461
462
463
464
465
466
467
468
469
470
471
472
473
474
475
476
477
478
479
480
481
482
483
484
485
486
487
488
489
490
491
492
493
494
495
496
497
498
499
500
501
502
503
504
505
506
507
508
509
510
511
512
513
514
515
516
517
518
519
520
521
522
523
524
525
526
527
528
529
530
531
532
533
534
535
536
537
538
539
540
541
542
543
544
545
546
547
548
549
550
551
552
553
554
555
556
557
558
559
560
561
562
563
564
565
566
567
568
569
570
571
572
573
574
575
576
577
578
579
580
581
582
583
584
585
586
587
588
589
590
591
592
593
594
595
596
597
598
599
600
601
602
603
604
605
606
607
608
609
610
611
612
613
614
615
616
617
618
619
620
621
622
623
624
625
626
627
628
629
630
631
632
633
634
635
636
637
638
639
640
641
642
643
644
645
646
647
648
649
650
651
652
653
654
655
656
657
658
659
660
661
662
663
664
665
666
667
668
669
670
671
672
673
674
675
676
677
678
679
680
681
682
683
684
685
686
687
688
689
690
691
692
693
694
695
696
697
698
699
700
701
702
703
704
705
706
707
708
709
710
711
712
713
714
715
716
717
718
719
720
721
722
723
724
725
726
727
728
729
730
731
732
733
734
735
736
737
738
739
740
741
742
743
744
745
746
747
748
749
750
751
752
753
754
755
756
757
758
759
760
761
762
763
764
765
766
767
768
769
770
771
772
773
774
775
776
777
778
779
780
781
782
783
784
785
786
787
788
789
790
791
792
793
794
795
796
797
798
799
800
801
802
803
804
805
806
807
808
809
810
811
812
813
814
815
816
817
818
819
820
821
822
823
824
825
826
827
828
829
830
831
832
833
834
835
836
837
838
839
840
841
842
843
844
845
846
847
848
849
850
851
852
853
854
855
856
857
858
859
860
861
862
863
864
865
866
867
868
869
870
871
872
873
874
875
876
877
878
879
    <DataArray type="Float64" Name="v" NumberOfComponents="3"/>
0 0 0
0 0 0
0 0 0
0 0 0
0 0 0
0 0 0
0 0 0
0 0 0
0 0 0
0 0 0
0 0 0
0 0 0
0 0 0
0 0 0
0 0 0
0 0 0
0 0 0
0 0 0
0 0 0
0 0 0
0 0 0
0 0 0
0 0 0
0 0 0
0 0 0
0 0 0
0 0 0
0 0 0
0 0 0
0 0 0
0 0 0
0 0 0
0 0 0
0 0 0
0 0 0
0 0 0
0 0 0
0 0 0
0 0 0
0 0 0
0 0 0
0 0 0
0 0 0
0 0 0
0 0 0
0 0 0
0 0 0
0 0 0
0 0 0
0 0 0
0 0 0
0 0 0
0 0 0
0 0 0
0 0 0
0 0 0
0 0 0
0 0 0
0 0 0
0 0 0
0 0 0
0 0 0
0 0 0
0 0 0
0 0 0
0 0 0
0 0 0
0 0 0
0 0 0
0 0 0
0 0 0
0 0 0
0 0 0
0 0 0
0 0 0
0 0 0
0 0 0
0 0 0
0 0 0
0 0 0
0 0 0
0 0 0
0 0 0
0 0 0
0 0 0
0 0 0
0 0 0
0 0 0
0 0 0
0 0 0
0 0 0
0 0 0
0 0 0
0 0 0
0 0 0
0 0 0
0 0 0
0 0 0
0 0 0
0 0 0
0 0 0
0 0 0
0 0 0
0 0 0
0 0 0
0 0 0
0 0 0
0 0 0
0 0 0
0 0 0
0 0 0
0 0 0
0 0 0
0 0 0
0 0 0
0 0 0
0 0 0
0 0 0
0 0 0
0 0 0
0 0 0
0 0 0
0 0 0
0 0 0
0 0 0
0 0 0
0 0 0
0 0 0
0 0 0
0 0 0
0 0 0
0 0 0
0 0 0
0 0 0
0 0 0
0 0 0
0 0 0
0 0 0
0 0 0
0 0 0
0 0 0
0 0 0
0 0 0
0 0 0
0 0 0
0 0 0
0 0 0
0 0 0
0 0 0
0 0 0
0 0 0
0 0 0
0 0 0
0 0 0
0 0 0
0 0 0
0 0 0
0 0 0
0 0 0
0 0 0
0 0 0
0 0 0
0 0 0
0 0 0
0 0 0
0 0 0
0 0 0
0 0 0
0 0 0
0 0 0
0 0 0
0 0 0
0 0 0
0 0 0
0 0 0
0 0 0
0 0 0
0 0 0
0 0 0
0 0 0
0 0 0
0 0 0
0 0 0
0 0 0
0 0 0
0 0 0
0 0 0
0 0 0
0 0 0
0 0 0
0 0 0
0 0 0
0 0 0
0 0 0
0 0 0
0 0 0
0 0 0
0 0 0
0 0 0
0 0 0
0 0 0
0 0 0
0 0 0
0 0 0
0 0 0
0 0 0
0 0 0
0 0 0
0 0 0
0 0 0
0 0 0
0 0 0
0 0 0
0 0 0
0 0 0
0 0 0
0 0 0
0 0 0
0 0 0
0 0 0
0 0 0
0 0 0
0 0 0
0 0 0
0 0 0
0 0 0
0 0 0
0 0 0
0 0 0
0 0 0
0 0 0
0 0 0
0 0 0
0 0 0
0 0 0
0 0 0
0 0 0
0 0 0
0 0 0
0 0 0
0 0 0
0 0 0
0 0 0
0 0 0
0 0 0
0 0 0
0 0 0
0 0 0
0 0 0
0 0 0
0 0 0
0 0 0
0 0 0
0 0 0
0 0 0
0 0 0
0 0 0
0 0 0
0 0 0
0 0 0
0 0 0
0 0 0
0 0 0
0 0 0
0 0 0
0 0 0
0 0 0
0 0 0
0 0 0
0 0 0
0 0 0
0 0 0
0 0 0
0 0 0
0 0 0
0 0 0
0 0 0
0 0 0
0 0 0
0 0 0
0 0 0
0 0 0
0 0 0
0 0 0
0 0 0
0 0 0
0 0 0
0 0 0
0 0 0
0 0 0
0 0 0
0 0 0
0 0 0
0 0 0
0 0 0
0 0 0
0 0 0
0 0 0
0 0 0
0 0 0
0 0 0
0 0 0
0 0 0
0 0 0
0 0 0
0 0 0
0 0 0
0 0 0
0 0 0
0 0 0
0 0 0
0 0 0
0 0 0
0 0 0
0 0 0
0 0 0
0 0 0
0 0 0
0 0 0
0 0 0
0 0 0
0 0 0
0 0 0
0 0 0
0 0 0
0 0 0
0 0 0
0 0 0
0 0 0
0 0 0
0 0 0
0 0 0
0 0 0
0 0 0
0 0 0
0 0 0
0 0 0
0 0 0
0 0 0
0 0 0
0 0 0
0 0 0
0 0 0
0 0 0
0 0 0
0 0 0
0 0 0
0 0 0
0 0 0
0 0 0
0 0 0
0 0 0
0 0 0
0 0 0
0 0 0
0 0 0
0 0 0
0 0 0
0 0 0
0 0 0
0 0 0
0 0 0
0 0 0
0 0 0
0 0 0
0 0 0
0 0 0
0 0 0
0 0 0
0 0 0
0 0 0
0 0 0
0 0 0
0 0 0
0 0 0
0 0 0
0 0 0
0 0 0
0 0 0
0 0 0
0 0 0
0 0 0
0 0 0
0 0 0
0 0 0
0 0 0
0 0 0
0 0 0
0 0 0
0 0 0
0 0 0
0 0 0
0 0 0
0 0 0
0 0 0
0 0 0
0 0 0
0 0 0
0 0 0
0 0 0
0 0 0
0 0 0
0 0 0
0 0 0
0 0 0
0 0 0
0 0 0
0 0 0
0 0 0
0 0 0
0 0 0
0 0 0
0 0 0
0 0 0
0 0 0
0 0 0
0 0 0
0 0 0
0 0 0
0 0 0
0 0 0
0 0 0
0 0 0
0 0 0
0 0 0
0 0 0
0 0 0
0 0 0
0 0 0
0 0 0
0 0 0
0 0 0
0 0 0
0 0 0
0 0 0
0 0 0
0 0 0
0 0 0
0 0 0
0 0 0
0 0 0
0 0 0
0 0 0
0 0 0
0 0 0
0 0 0
0 0 0
0 0 0
0 0 0
0 0 0
0 0 0
0 0 0
0 0 0
0 0 0
0 0 0
0 0 0
0 0 0
0 0 0
0 0 0
0 0 0
0 0 0
0 0 0
0 0 0
0 0 0
0 0 0
0 0 0
0 0 0
0 0 0
0 0 0
0 0 0
0 0 0
0 0 0
0 0 0
0 0 0
0 0 0
0 0 0
0 0 0
0 0 0
0 0 0
0 0 0
0 0 0
0 0 0
0 0 0
0 0 0
0 0 0
0 0 0
0 0 0
0 0 0
0 0 0
0 0 0
0 0 0
0 0 0
0 0 0
0 0 0
0 0 0
0 0 0
0 0 0
0 0 0
0 0 0
0 0 0
0 0 0
0 0 0
0 0 0
0 0 0
0 0 0
0 0 0
0 0 0
0 0 0
0 0 0
0 0 0
0 0 0
0 0 0
0 0 0
0 0 0
0 0 0
0 0 0
0 0 0
0 0 0
0 0 0
0 0 0
0 0 0
0 0 0
0 0 0
0 0 0
0 0 0
0 0 0
0 0 0
0 0 0
0 0 0
0 0 0
0 0 0
0 0 0
0 0 0
0 0 0
0 0 0
0 0 0
0 0 0
0 0 0
0 0 0
0 0 0
0 0 0
0 0 0
0 0 0
0 0 0
0 0 0
0 0 0
0 0 0
0 0 0
0 0 0
0 0 0
0 0 0
0 0 0
0 0 0
0 0 0
0 0 0
0 0 0
0 0 0
0 0 0
0 0 0
0 0 0
0 0 0
0 0 0
0 0 0
0 0 0
0 0 0
0 0 0
0 0 0
0 0 0
0 0 0
0 0 0
0 0 0
0 0 0
0 0 0
0 0 0
0 0 0
0 0 0
0 0 0
0 0 0
0 0 0
0 0 0
0 0 0
0 0 0
0 0 0
0 0 0
0 0 0
0 0 0
0 0 0
0 0 0
0 0 0
0 0 0
0 0 0
0 0 0
0 0 0
0 0 0
0 0 0
0 0 0
0 0 0
0 0 0
0 0 0
0 0 0
0 0 0
0 0 0
0 0 0
0 0 0
0 0 0
0 0 0
0 0 0
0 0 0
0 0 0
0 0 0
0 0 0
0 0 0
0 0 0
0 0 0
0 0 0
0 0 0
0 0 0
0 0 0
0 0 0
0 0 0
0 0 0
0 0 0
0 0 0
0 0 0
0 0 0
0 0 0
0 0 0
0 0 0
0 0 0
0 0 0
0 0 0
0 0 0
0 0 0
0 0 0
0 0 0
0 0 0
0 0 0
0 0 0
0 0 0
0 0 0
0 0 0
0 0 0
0 0 0
0 0 0
0 0 0
0 0 0
0 0 0
0 0 0
0 0 0
0 0 0
0 0 0
0 0 0
0 0 0
0 0 0
0 0 0
0 0 0
0 0 0
0 0 0
0 0 0
0 0 0
0 0 0
0 0 0
0 0 0
0 0 0
0 0 0
0 0 0
0 0 0
0 0 0
0 0 0
0 0 0
0 0 0
0 0 0
0 0 0
0 0 0
0 0 0
0 0 0
0 0 0
0 0 0
0 0 0
0 0 0
0 0 0
0 0 0
0 0 0
0 0 0
0 0 0
0 0 0
0 0 0
0 0 0
0 0 0
0 0 0
0 0 0
0 0 0
0 0 0
0 0 0
0 0 0
0 0 0
0 0 0
0 0 0
0 0 0
0 0 0
0 0 0
0 0 0
0 0 0
0 0 0
0 0 0
0 0 0
0 0 0
0 0 0
0 0 0
0 0 0
0 0 0
0 0 0
0 0 0
0 0 0
0 0 0
0 0 0
0 0 0
0 0 0
0 0 0
0 0 0
0 0 0
0 0 0
0 0 0
0 0 0
0 0 0
0 0 0
0 0 0
0 0 0
0 0 0
0 0 0
0 0 0
0 0 0
0 0 0
0 0 0
0 0 0
0 0 0
0 0 0
0 0 0
0 0 0
0 0 0
0 0 0
0 0 0
0 0 0
0 0 0
0 0 0
0 0 0
0 0 0
0 0 0
0 0 0
0 0 0
0 0 0
0 0 0
0 0 0
0 0 0
0 0 0
0 0 0
0 0 0
0 0 0
0 0 0
0 0 0
0 0 0
0 0 0
0 0 0
0 0 0
0 0 0
0 0 0
0 0 0
0 0 0
0 0 0
0 0 0
0 0 0
0 0 0
0 0 0
0 0 0
0 0 0
0 0 0
0 0 0
0 0 0
0 0 0
0 0 0
0 0 0
0 0 0
0 0 0
0 0 0
0 0 0
0 0 0
0 0 0
0 0 0
0 0 0
0 0 0
0 0 0
0 0 0
0 0 0
0 0 0
0 0 0
0 0 0
0 0 0
0 0 0
0 0 0
0 0 0
0 0 0
0 0 0
0 0 0
0 0 0
0 0 0
0 0 0
0 0 0
0 0 0
0 0 0
0 0 0
0 0 0
0 0 0
0 0 0
0 0 0
0 0 0
0 0 0
0 0 0
0 0 0
0 0 0
0 0 0
0 0 0
0 0 0
0 0 0
0 0 0
0 0 0
0 0 0
0 0 0
0 0 0
0 0 0
0 0 0
0 0 0
0 0 0
0 0 0
0 0 0
0 0 0
0 0 0
0 0 0
0 0 0
0 0 0
0 0 0
0 0 0
0 0 0
0 0 0
0 0 0
0 0 0
0 0 0
0 0 0
0 0 0
0 0 0
0 0 0
0 0 0
0 0 0
0 0 0
0 0 0
0 0 0
0 0 0
0 0 0
0 0 0
0 0 0
0 0 0
0 0 0
0 0 0
0 0 0
0 0 0
0 0 0
0 0 0
0 0 0
0 0 0
0 0 0
0 0 0
0 0 0
0 0 0
0 0 0
0 0 0
0 0 0
0 0 0
0 0 0
0 0 0
0 0 0
0 0 0
    <DataArray type="Float64" Name="Force" NumberOfComponents="3"/>
0 0 0
0 0 0
0 0 0
0 0 0
0 0 0
0 0 0
0 0 0
0 0 0
0 0 0
0 0 0
0 0 0
0 0 0
0 0 0
0 0 0
0 0 0
0 0 0
0 0 0
0 0 0
0 0 0
0 0 0
0 0 0
0 0 0
0 0 0
0 0 0
0 0 0
0 0 0
0 0 0
0 0 0
0 0 0
0 0 0
0 0 0
0 0 0
0 0 0
0 0 0
0 0 0
0 0 0
0 0 0
0 0 0
0 0 0
0 0 0
0 0 0
-43.385 27.3984 -32.7101
0 0 0
0 0 0
0 0 0
-217.638 218.357 2.66632
0 0 0
-61.2338 46.0213 -46.5798
0 0 0
0 0 0
0 0 0
0 0 0
0 0 0
0 0 0
-83.0417 18.0688 -15.9935
0 0 0
0 0 0
0 0 0
-257.416 201.793 -19.6673
0 0 0
-512.977 568.077 -167.712
0 0 0
-54.8911 71.2929 -36.7466
0 0 0
-12.9268 6.32213 -4.28471
0 0 0
-38.1724 28.5296 -18.2179
0 0 0
0 0 0
0 0 0
-27.6955 52.7152 -2.70182
0 0 0
0 0 0
0 0 0
0 0 0
0 0 0
0 0 0
0 0 0
0 0 0
0 0 0
0 0 0
-152.322 233.348 75.4346
0 0 0
0 0 0
0 0 0
0 0 0
0 0 0
0 0 0
0 0 0
0 0 0
-374.607 78.5483 105.294
0 0 0
0 0 0
0 0 0
-47.83 19.392 -3.70427
0 0 0
0 0 0
0 0 0
0 0 0
0 0 0
-75.8912 48.8116 8.84765
0 0 0
-21.7455 3.4157 4.16548
0 0 0
-35.9298 17.2234 6.17098
0 0 0
0 0 0
0 0 0
-74.2244 138.495 35.6854
0 0 0
0 0 0
0 0 0
0 0 0
0 0 0
0 0 0
-1004.24 2321.83 -3185.1
0 0 0
-3708.65 -227.924 -626.574
0 0 0
0 0 0
0 0 0
0 0 0
-66.2294 97.4223 -30.3835
0 0 0
0 0 0
0 0 0
0 0 0
0 0 0
0 0 0
0 0 0
0 0 0
-55.3915 25.087 -6.93759
0 0 0
0 0 0
0 0 0
-65.6166 12.3256 -15.6267
0 0 0
0 0 0
0 0 0
0 0 0
0 0 0
0 0 0
0 0 0
0 0 0
-28.4226 7.07119 -8.98096
0 0 0
0 0 0
0 0 0
0 0 0
0 0 0
0 0 0
0 0 0
0 0 0
0 0 0
0 0 0
0 0 0
0 0 0
0 0 0
-1092.86 716.257 319.803
0 0 0
0 0 0
0 0 0
-46.2208 68.8099 16.7585
0 0 0
0 0 0
-2801.38 11737.7 -4595.52
0 0 0
0 0 0
0 0 0
0 0 0
0 0 0
-267.089 55.1027 31.018
0 0 0
0 0 0
0 0 0
-60.2092 15.9149 6.11991
0 0 0
-690.136 306.946 187.888
0 0 0
0 0 0
-168.596 50.8809 26.3962
0 0 0
-36.8769 6.44764 5.01855
0 0 0
0 0 0
0 0 0
0 0 0
0 0 0
0 0 0
0 0 0
0 0 0
0 0 0
0 0 0
0 0 0
0 0 0
0 0 0
0 0 0
437.115 2877.86 -2462.13
0 0 0
-5973.83 3781.66 -1675.99
0 0 0
0 0 0
-3264.85 9503.81 -5724.89
0 0 0
0 0 0
0 0 0
-133.199 83.6381 -31.6444
0 0 0
-237.976 135.065 -13.9666
0 0 0
0 0 0
0 0 0
0 0 0
0 0 0
0 0 0
0 0 0
-10.0032 4.19957 -0.146355
0 0 0
0 0 0
0 0 0
-76.594 0.221147 -6.13266
0 0 0
0 0 0
0 0 0
0 0 0
0 0 0
0 0 0
0 0 0
0 0 0
0 0 0
-58.4954 48.7992 -17.801
0 0 0
0 0 0
0 0 0
-5772.01 3617.18 -4649.62
0 0 0
0 0 0
-2005.55 1269.59 679.723
0 0 0
0 0 0
0 0 0
0 0 0
-302.792 213.978 180.341
0 0 0
0 0 0
0 0 0
0 0 0
0 0 0
-584.898 315.665 116.705
0 0 0
-305.404 169.82 134.433
0 0 0
-476.428 231.008 133.293
0 0 0
0 0 0
0 0 0
-18.0776 8.8162 6.75205
0 0 0
-8.96396 3.41598 2.50212
0 0 0
0 0 0
0 0 0
0 0 0
0 0 0
0 0 0
0 0 0
0 0 0
0 0 0
0 0 0
0 0 0
0 0 0
0 0 0
0 0 0
0 0 0
0 0 0
-206.493 290.706 -10.6533
0 0 0
0 0 0
-124.61 46.7394 -13.5388
0 0 0
0 0 0
0 0 0
0 0 0
0 0 0
-44.6558 11.4892 -10.4108
0 0 0
0 0 0
0 0 0
0 0 0
0 0 0
-23.9711 3.26347 -6.09421
0 0 0
0 0 0
0 0 0
0 0 0
0 0 0
0 0 0
-4.9664 4.82421 -1.79009
0 0 0
0 0 0
0 0 0
0 0 0
0 0 0
0 0 0
0 0 0
0 0 0
0 0 0
0 0 0
0 0 0
0 0 0
0 0 0
0 0 0
0 0 0
-267.727 379.37 190.479
0 0 0
0 0 0
-43.6294 31.6236 11.6253
0 0 0
-226.177 73.144 32.5567
0 0 0
0 0 0
0 0 0
-42.6081 10.3927 9.80008
0 0 0
-277.271 299.634 75.306
0 0 0
-430.746 362.252 166.087
0 0 0
-34.9259 5.35378 10.8477
0 0 0
0 0 0
-358.592 473.625 125.627
0 0 0
-193.979 187.557 51.4373
0 0 0
-48.1985 46.8186 17.3299
0 0 0
0 0 0
0 0 0
0 0 0
0 0 0
0 0 0
0 0 0
0 0 0
0 0 0
0 0 0
0 0 0
0 0 0
0 0 0
0 0 0
0 0 0
0 0 0
0 0 0
0 0 0
0 0 0
0 0 0
0 0 0
0 0 0
0 0 0
0 0 0
0 0 0
0 0 0
0 0 0
0 0 0
0 0 0
0 0 0
0 0 0
0 0 0
0 0 0
0 0 0
0 0 0
0 0 0
0 0 0
0 0 0
0 0 0
0 0 0
0 0 0
0 0 0
0 0 0
0 0 0
0 0 0
0 0 0
0 0 0
0 0 0
0 0 0
0 0 0
0 0 0
0 0 0
0 0 0
0 0 0
0 0 0
0 0 0
0 0 0
0 0 0
0 0 0
0 0 0
0 0 0
0 0 0
0 0 0
0 0 0
0 0 0
0 0 0
0 0 0
0 0 0
0 0 0
0 0 0
0 0 0
0 0 0
0 0 0
0 0 0
0 0 0
0 0 0
0 0 0
0 0 0
0 0 0
0 0 0
0 0 0
0 0 0
0 0 0
0 0 0
0 0 0
0 0 0
0 0 0
0 0 0
0 0 0
0 0 0
0 0 0
0 0 0
0 0 0
0 0 0
0 0 0
0 0 0
0 0 0
0 0 0
0 0 0
0 0 0
0 0 0
0 0 0
0 0 0
0 0 0
0 0 0
0 0 0
0 0 0
0 0 0
0 0 0
0 0 0
0 0 0
0 0 0
0 0 0
0 0 0
0 0 0
0 0 0
0 0 0
0 0 0
0 0 0
0 0 0
0 0 0
-85.1276 -182.693 -151.123
0 0 0
-413.837 -132.454 -234.189
0 0 0
0 0 0
-114.597 -86.5857 -59.8848
0 0 0
0 0 0
0 0 0
0 0 0
0 0 0
0 0 0
-61.2147 -25.4799 -11.5766
0 0 0
-50.9481 -21.1887 -10.4057
0 0 0
-423.63 -650.149 -43.3387
0 0 0
0 0 0
-160.653 -232.797 -111.629
0 0 0
-64.5054 -75.0734 -44.7637
0 0 0
-593.382 -455.301 -53.1067
0 0 0
0 0 0
0 0 0
-72.5268 -53.5666 18.321
0 0 0
-17.3815 -10.6848 -5.26934
0 0 0
0 0 0
0 0 0
0 0 0
0 0 0
0 0 0
0 0 0
0 0 0
0 0 0
0 0 0
0 0 0
0 0 0
0 0 0
0 0 0
0 0 0
0 0 0
0 0 0
0 0 0
0 0 0
0 0 0
0 0 0
0 0 0
0 0 0
0 0 0
0 0 0
0 0 0
0 0 0
0 0 0
0 0 0
0 0 0
0 0 0
0 0 0
0 0 0
-92.6054 -133.69 40.3106
0 0 0
-32.0636 -19.699 9.72625
0 0 0
-32.8574 -3.53891 4.58373
0 0 0
0 0 0
0 0 0
0 0 0
0 0 0
0 0 0
0 0 0
0 0 0
-194.874 -202.706 -48.5709
0 0 0
0 0 0
0 0 0
-387.878 -151.607 -215.786
0 0 0
0 0 0
-2607.22 -1624.11 -285.178
0 0 0
0 0 0
0 0 0
-174.748 -758.49 -79.7471
0 0 0
-121.389 -30.9238 -15.3102
0 0 0
0 0 0
0 0 0
0 0 0
-520.285 -309.087 -96.3586
0 0 0
0 0 0
0 0 0
-392.664 -324.935 -80.1037
0 0 0
-168.732 -100.956 -50.7145
0 0 0
-60.0024 -59.1824 -9.61079
0 0 0
-43.2405 -25.8993 -13.0321
0 0 0
-48.6717 53.9506 6.75392
0 0 0
0 0 0
0 0 0
0 0 0
0 0 0
0 0 0
0 0 0
0 0 0
0 0 0
0 0 0
0 0 0
0 0 0
0 0 0
-1245.39 -5819.35 -1744.93
0 0 0
0 0 0
0 0 0
0 0 0
0 0 0
0 0 0
0 0 0
0 0 0
0 0 0
-240.366 -182.728 64.0529
0 0 0
0 0 0
0 0 0
0 0 0
0 0 0
0 0 0
0 0 0
-103.706 -62.0501 31.2639
0 0 0
0 0 0
0 0 0
-91.6924 -54.92 27.5706
0 0 0
-22.9452 -57.1793 23.5934
0 0 0
0 0 0
0 0 0
0 0 0
0 0 0
0 0 0
0 0 0
-4533.94 -2236.65 -1566.11
0 0 0
0 0 0
0 0 0
0 0 0
0 0 0
-298.638 -891.97 241.628
0 0 0
0 0 0
0 0 0
0 0 0
0 0 0
-569.961 -674.783 112.84
0 0 0
-90.0355 -70.0753 -11.3394
0 0 0
0 0 0
0 0 0
-196.114 -258.649 -126.951
0 0 0
0 0 0
-292.429 -127.192 -10.2432
0 0 0
-156.986 -101.718 -24.9352
0 0 0
0 0 0
0 0 0
-139.193 -132.974 -64.316
0 0 0
-27.3995 -14.714 11.8997
0 0 0
0 0 0
0 0 0
0 0 0
0 0 0
0 0 0
0 0 0
0 0 0
0 0 0
0 0 0
0 0 0
-1352.01 -1593.16 198.352
0 0 0
0 0 0
0 0 0
0 0 0
-7.40046 -5.92146 0.317694
0 0 0
-1.61251 -8.03062 1.74428
0 0 0
0 0 0
0 0 0
-338.952 -484.805 159.495
0 0 0
-59.6584 -127.68 5.91065
0 0 0
0 0 0
0 0 0
0 0 0
0 0 0
0 0 0
-66.0042 -54.12 22.0853
0 0 0
0 0 0
0 0 0
0 0 0
0 0 0
-63.1847 -42.4863 16.5802
0 0 0
0 0 0
0 0 0
0 0 0
0 0 0
0 0 0
0 0 0
0 0 0
0 0 0
-78.4248 -24.5007 -25.7276
0 0 0
0 0 0
-653.705 -1039.08 -297.303
0 0 0
0 0 0
0 0 0
0 0 0
0 0 0
0 0 0
0 0 0
0 0 0
0 0 0
0 0 0
0 0 0
0 0 0
0 0 0
0 0 0
-1008.1 -912.825 -344.123
0 0 0
-124.005 -198.321 -84.264
0 0 0
0 0 0
0 0 0
-291.061 -143.119 39.3798
0 0 0
-33.4466 -67.8233 1.57505
0 0 0
0 0 0
0 0 0
-26.1395 -46.4449 -8.77147
0 0 0
0 0 0
0 0 0
0 0 0
0 0 0
0 0 0
0 0 0
0 0 0
0 0 0
0 0 0
0 0 0
0 0 0
-308.479 -688.369 194.481
0 0 0
-46.1479 -33.5677 10.591
0 0 0
-174.503 -77.6741 13.0964
0 0 0
0 0 0
-101.2 -54.3627 28.8336
0 0 0
-1937.47 198.489 170.561
0 0 0
0 0 0
0 0 0
-276.169 -99.311 67.3848
0 0 0
-108.994 -99.4541 38.1798
0 0 0
-219.198 -146.987 57.2235
0 0 0
0 0 0
0 0 0
-123.187 -177.216 111.757
0 0 0
-39.7909 -47.693 11.9499
0 0 0
-16.8481 -27.755 10.2884
0 0 0
0 0 0
0 0 0
0 0 0
0 0 0
0 0 0
0 0 0
0 0 0
0 0 0
0 0 0
0 0 0
0 0 0
0 0 0
0 0 0
0 0 0
0 0 0
0 0 0
0 0 0
0 0 0
0 0 0
0 0 0
0 0 0
0 0 0
0 0 0
0 0 0
0 0 0
0 0 0
0 0 0
0 0 0
0 0 0
0 0 0
0 0 0
0 0 0
0 0 0
0 0 0
0 0 0
0 0 0
0 0 0
0 0 0
0 0 0
0 0 0
0 0 0
0 0 0
0 0 0
0 0 0
0 0 0
0 0 0
0 0 0
0 0 0
0 0 0
0 0 0
0 0 0
0 0 0
0 0 0
0 0 0
0 0 0
0 0 0
0 0 0
0 0 0
0 0 0
0 0 0
0 0 0
0 0 0
0 0 0
0 0 0
0 0 0
0 0 0
0 0 0
0 0 0
0 0 0
0 0 0
0 0 0
0 0 0
0 0 0
0 0 0
0 0 0
0 0 0
0 0 0
0 0 0
0 0 0
0 0 0
0 0 0
0 0 0
0 0 0
0 0 0
0 0 0
-411.322 -22.779 -203.619
0 0 0
0 0 0
0 0 0
0 0 0
0 0 0
0 0 0
0 0 0
0 0 0
0 0 0
0 0 0
0 0 0
0 0 0
0 0 0
0 0 0
-4075.88 -6558.69 -2181.31
0 0 0
-2273.09 -134.514 119.979
0 0 0
0 0 0
0 0 0
0 0 0
0 0 0
0 0 0
0 0 0
0 0 0
-56.509 4.99379 -27.5616
-176.041 22.7707 19.9508
0 0 0
0 0 0
-193.896 15.3925 9.28
0 0 0
0 0 0
0 0 0
0 0 0
0 0 0
0 0 0
0 0 0
0 0 0
   </PointData>
   <CellData>
   </CellData>
   <Points>
    <DataArray type="Float64" Name="Points" NumberOfComponents="3"/>
4 3.25 0
4.07071 3.32071 0
4.14142 3.39142 0
4.21213 3.46213 0
4.28284 3.53284 0
4.35355 3.60355 0
4.42426 3.67426 0
4.49498 3.74498 0
4.56569 3.81569 0
4.6364 3.8864 0
4.70711 3.95711 0
4.77782 4.02782 0
4.84853 4.09853 0
4.91924 4.16924 0
4.98995 4.23995 0
5.06066 4.31066 0
5.13137 4.38137 0
5.20208 4.45208 0
5.27279 4.52279 0
5.3435 4.5935 0
5.41421 4.66421 0
5.48492 4.73492 0
5.55563 4.80563 0
5.62635 4.87635 0
5.69706 4.94706 0
5.76777 5.01777 0
5.83848 5.08848 0
5.90919 5.15919 0
5.9799 5.2299 0
6.05061 5.30061 0
6.12132 5.37132 0
6.19203 5.44203 0
6.26274 5.51274 0
6.33345 5.58345 0
6.40416 5.65416 0
6.47487 5.72487 0
6.54558 5.79558 0
6.6163 5.8663 0
4 3.25 0.1
4.07071 3.32071 0.1
4.14142 3.39142 0.1
4.21213 3.46213 0.1
4.28284 3.53284 0.1
4.35355 3.60355 0.1
4.42426 3.67426 0.1
4.49498 3.74498 0.1
4.56569 3.81569 0.1
4.6364 3.8864 0.1
4.70711 3.95711 0.1
4.77782 4.02782 0.1
4.84853 4.09853 0.1
4.91924 4.16924 0.1
4.98995 4.23995 0.1
5.06066 4.31066 0.1
5.13137 4.38137 0.1
5.20208 4.45208 0.1
5.27279 4.52279 0.1
5.3435 4.5935 0.1
5.41421 4.66421 0.1
5.48492 4.73492 0.1
5.55563 4.80563 0.1
5.62635 4.87635 0.1
5.69706 4.94706 0.1
5.76777 5.01777 0.1
5.83848 5.08848 0.1
5.90919 5.15919 0.1
5.9799 5.2299 0.1
6.05061 5.30061 0.1
6.12132 5.37132 0.1
6.19203 5.44203 0.1
6.26274 5.51274 0.1
6.33345 5.58345 0.1
6.40416 5.65416 0.1
6.47487 5.72487 0.1
6.54558 5.79558 0.1
6.6163 5.8663 0.1
4 3.25 0.2
4.07071 3.32071 0.2
4.14142 3.39142 0.2
4.21213 3.46213 0.2
4.28284 3.53284 0.2
4.35355 3.60355 0.2
4.42426 3.67426 0.2
4.49498 3.74498 0.2
4.56569 3.81569 0.2
4.6364 3.8864 0.2
4.70711 3.95711 0.2
4.77782 4.02782 0.2
4.84853 4.09853 0.2
4.91924 4.16924 0.2
4.98995 4.23995 0.2
5.06066 4.31066 0.2
5.13137 4.38137 0.2
5.20208 4.45208 0.2
5.27279 4.52279 0.2
5.3435 4.5935 0.2
5.41421 4.66421 0.2
5.48492 4.73492 0.2
5.55563 4.80563 0.2
5.62635 4.87635 0.2
5.69706 4.94706 0.2
5.76777 5.01777 0.2
5.83848 5.08848 0.2
5.90919 5.15919 0.2
5.9799 5.2299 0.2
6.05061 5.30061 0.2
6.12132 5.37132 0.2
6.19203 5.44203 0.2
6.26274 5.51274 0.2
6.33345 5.58345 0.2
6.40416 5.65416 0.2
6.47487 5.72487 0.2
6.54558 5.79558 0.2
6.6163 5.8663 0.2
4 3.25 0.3
4.07071 3.32071 0.3
4.14142 3.39142 0.3
4.21213 3.46213 0.3
4.28284 3.53284 0.3
4.35355 3.60355 0.3
4.42426 3.67426 0.3
4.49498 3.74498 0.3
4.56569 3.81569 0.3
4.6364 3.8864 0.3
4.70711 3.95711 0.3
4.77782 4.02782 0.3
4.84853 4.09853 0.3
4.91924 4.16924 0.3
4.98995 4.23995 0.3
5.06066 4.31066 0.3
5.13137 4.38137 0.3
5.20208 4.45208 0.3
5.27279 4.52279 0.3
5.3435 4.5935 0.3
5.41421 4.66421 0.3
5.48492 4.73492 0.3
5.55563 4.80563 0.3
5.62635 4.87635 0.3
5.69706 4.94706 0.3
5.76777 5.01777 0.3
5.83848 5.08848 0.3
5.90919 5.15919 0.3
5.9799 5.2299 0.3
6.05061 5.30061 0.3
6.12132 5.37132 0.3
6.19203 5.44203 0.3
6.26274 5.51274 0.3
6.33345 5.58345 0.3
6.40416 5.65416 0.3
6.47487 5.72487 0.3
6.54558 5.79558 0.3
6.6163 5.8663 0.3
4 3.25 0.4
4.07071 3.32071 0.4
4.14142 3.39142 0.4
4.21213 3.46213 0.4
4.28284 3.53284 0.4
4.35355 3.60355 0.4
4.42426 3.67426 0.4
4.49498 3.74498 0.4
4.56569 3.81569 0.4
4.6364 3.8864 0.4
4.70711 3.95711 0.4
4.77782 4.02782 0.4
4.84853 4.09853 0.4
4.91924 4.16924 0.4
4.98995 4.23995 0.4
5.06066 4.31066 0.4
5.13137 4.38137 0.4
5.20208 4.45208 0.4
5.27279 4.52279 0.4
5.3435 4.5935 0.4
5.41421 4.66421 0.4
5.48492 4.73492 0.4
5.55563 4.80563 0.4
5.62635 4.87635 0.4
5.69706 4.94706 0.4
5.76777 5.01777 0.4
5.83848 5.08848 0.4
5.90919 5.15919 0.4
5.9799 5.2299 0.4
6.05061 5.30061 0.4
6.12132 5.37132 0.4
6.19203 5.44203 0.4
6.26274 5.51274 0.4
6.33345 5.58345 0.4
6.40416 5.65416 0.4
6.47487 5.72487 0.4
6.54558 5.79558 0.4
6.6163 5.8663 0.4
4 3.25 0.5
4.07071 3.32071 0.5
4.14142 3.39142 0.5
4.21213 3.46213 0.5
4.28284 3.53284 0.5
4.35355 3.60355 0.5
4.42426 3.67426 0.5
4.49498 3.74498 0.5
4.56569 3.81569 0.5
4.6364 3.8864 0.5
4.70711 3.95711 0.5
4.77782 4.02782 0.5
4.84853 4.09853 0.5
4.91924 4.16924 0.5
4.98995 4.23995 0.5
5.06066 4.31066 0.5
5.13137 4.38137 0.5
5.20208 4.45208 0.5
5.27279 4.52279 0.5
5.3435 4.5935 0.5
5.41421 4.66421 0.5
5.48492 4.73492 0.5
5.55563 4.80563 0.5
5.62635 4.87635 0.5
5.69706 4.94706 0.5
5.76777 5.01777 0.5
5.83848 5.08848 0.5
5.90919 5.15919 0.5
5.9799 5.2299 0.5
6.05061 5.30061 0.5
6.12132 5.37132 0.5
6.19203 5.44203 0.5
6.26274 5.51274 0.5
6.33345 5.58345 0.5
6.40416 5.65416 0.5
6.47487 5.72487 0.5
6.54558 5.79558 0.5
6.6163 5.8663 0.5
4 3.25 0.6
4.07071 3.32071 0.6
4.14142 3.39142 0.6
4.21213 3.46213 0.6
4.28284 3.53284 0.6
4.35355 3.60355 0.6
4.42426 3.67426 0.6
4.49498 3.74498 0.6
4.56569 3.81569 0.6
4.6364 3.8864 0.6
4.70711 3.95711 0.6
4.77782 4.02782 0.6
4.84853 4.09853 0.6
4.91924 4.16924 0.6
4.98995 4.23995 0.6
5.06066 4.31066 0.6
5.13137 4.38137 0.6
5.20208 4.45208 0.6
5.27279 4.52279 0.6
5.3435 4.5935 0.6
5.41421 4.66421 0.6
5.48492 4.73492 0.6
5.55563 4.80563 0.6
5.62635 4.87635 0.6
5.69706 4.94706 0.6
5.76777 5.01777 0.6
5.83848 5.08848 0.6
5.90919 5.15919 0.6
5.9799 5.2299 0.6
6.05061 5.30061 0.6
6.12132 5.37132 0.6
6.19203 5.44203 0.6
6.26274 5.51274 0.6
6.33345 5.58345 0.6
6.40416 5.65416 0.6
6.47487 5.72487 0.6
6.54558 5.79558 0.6
6.6163 5.8663 0.6
4 3.25 0.7
4.07071 3.32071 0.7
4.14142 3.39142 0.7
4.21213 3.46213 0.7
4.28284 3.53284 0.7
4.35355 3.60355 0.7
4.42426 3.67426 0.7
4.49498 3.74498 0.7
4.56569 3.81569 0.7
4.6364 3.8864 0.7
4.70711 3.95711 0.7
4.77782 4.02782 0.7
4.84853 4.09853 0.7
4.91924 4.16924 0.7
4.98995 4.23995 0.7
5.06066 4.31066 0.7
5.13137 4.38137 0.7
5.20208 4.45208 0.7
5.27279 4.52279 0.7
5.3435 4.5935 0.7
5.41421 4.66421 0.7
5.48492 4.73492 0.7
5.55563 4.80563 0.7
5.62635 4.87635 0.7
5.69706 4.94706 0.7
5.76777 5.01777 0.7
5.83848 5.08848 0.7
5.90919 5.15919 0.7
5.9799 5.2299 0.7
6.05061 5.30061 0.7
6.12132 5.37132 0.7
6.19203 5.44203 0.7
6.26274 5.51274 0.7
6.33345 5.58345 0.7
6.40416 5.65416 0.7
6.47487 5.72487 0.7
6.54558 5.79558 0.7
6.6163 5.8663 0.7
4 3.25 0.8
4.07071 3.32071 0.8
4.14142 3.39142 0.8
4.21213 3.46213 0.8
4.28284 3.53284 0.8
4.35355 3.60355 0.8
4.42426 3.67426 0.8
4.49498 3.74498 0.8
4.56569 3.81569 0.8
4.6364 3.8864 0.8
4.70711 3.95711 0.8
4.77782 4.02782 0.8
4.84853 4.09853 0.8
4.91924 4.16924 0.8
4.98995 4.23995 0.8
5.06066 4.31066 0.8
5.13137 4.38137 0.8
5.20208 4.45208 0.8
5.27279 4.52279 0.8
5.3435 4.5935 0.8
5.41421 4.66421 0.8
5.48492 4.73492 0.8
5.55563 4.80563 0.8
5.62635 4.87635 0.8
5.69706 4.94706 0.8
5.76777 5.01777 0.8
5.83848 5.08848 0.8
5.90919 5.15919 0.8
5.9799 5.2299 0.8
6.05061 5.30061 0.8
6.12132 5.37132 0.8
6.19203 5.44203 0.8
6.26274 5.51274 0.8
6.33345 5.58345 0.8
6.40416 5.65416 0.8
6.47487 5.72487 0.8
6.54558 5.79558 0.8
6.6163 5.8663 0.8
4 3.25 0.9
4.07071 3.32071 0.9
4.14142 3.39142 0.9
4.21213 3.46213 0.9
4.28284 3.53284 0.9
4.35355 3.60355 0.9
4.42426 3.67426 0.9
4.49498 3.74498 0.9
4.56569 3.81569 0.9
4.6364 3.8864 0.9
4.70711 3.95711 0.9
4.77782 4.02782 0.9
4.84853 4.09853 0.9
4.91924 4.16924 0.9
4.98995 4.23995 0.9
5.06066 4.31066 0.9
5.13137 4.38137 0.9
5.20208 4.45208 0.9
5.27279 4.52279 0.9
5.3435 4.5935 0.9
5.41421 4.66421 0.9
5.48492 4.73492 0.9
5.55563 4.80563 0.9
5.62635 4.87635 0.9
5.69706 4.94706 0.9
5.76777 5.01777 0.9
5.83848 5.08848 0.9
5.90919 5.15919 0.9
5.9799 5.2299 0.9
6.05061 5.30061 0.9
6.12132 5.37132 0.9
6.19203 5.44203 0.9
6.26274 5.51274 0.9
6.33345 5.58345 0.9
6.40416 5.65416 0.9
6.47487 5.72487 0.9
6.54558 5.79558 0.9
6.6163 5.8663 0.9
4 3.25 1
4.07071 3.32071 1
4.14142 3.39142 1
4.21213 3.46213 1
4.28284 3.53284 1
4.35355 3.60355 1
4.42426 3.67426 1
4.49498 3.74498 1
4.56569 3.81569 1
4.6364 3.8864 1
4.70711 3.95711 1
4.77782 4.02782 1
4.84853 4.09853 1
4.91924 4.16924 1
4.98995 4.23995 1
5.06066 4.31066 1
5.13137 4.38137 1
5.20208 4.45208 1
5.27279 4.52279 1
5.3435 4.5935 1
5.41421 4.66421 1
5.48492 4.73492 1
5.55563 4.80563 1
5.62635 4.87635 1
5.69706 4.94706 1
5.76777 5.01777 1
5.83848 5.08848 1
5.90919 5.15919 1
5.9799 5.2299 1
6.05061 5.30061 1
6.12132 5.37132 1
6.19203 5.44203 1
6.26274 5.51274 1
6.33345 5.58345 1
6.40416 5.65416 1
6.47487 5.72487 1
6.54558 5.79558 1
6.6163 5.8663 1
4 2.75 0
4.07071 2.67929 0
4.14142 2.60858 0
4.21213 2.53787 0
4.28284 2.46716 0
4.35355 2.39645 0
4.42426 2.32574 0
4.49498 2.25502 0
4.56569 2.18431 0
4.6364 2.1136 0
4.70711 2.04289 0
4.77782 1.97218 0
4.84853 1.90147 0
4.91924 1.83076 0
4.98995 1.76005 0
5.06066 1.68934 0
5.13137 1.61863 0
5.20208 1.54792 0
5.27279 1.47721 0
5.3435 1.4065 0
5.41421 1.33579 0
5.48492 1.26508 0
5.55563 1.19436 0
5.62635 1.12365 0
5.69706 1.05294 0
5.76777 0.982233 0
5.83848 0.911522 0
5.90919 0.840812 0
5.9799 0.770101 0
6.05061 0.69939 0
6.12132 0.62868 0
6.19203 0.557969 0
6.26274 0.487258 0
6.33345 0.416548 0
6.40416 0.345837 0
6.47487 0.275126 0
6.54558 0.204416 0
6.6163 0.133705 0
4 2.75 0.1
4.07071 2.67929 0.1
4.14142 2.60858 0.1
4.21213 2.53787 0.1
4.28284 2.46716 0.1
4.35355 2.39645 0.1
4.42426 2.32574 0.1
4.49498 2.25502 0.1
4.56569 2.18431 0.1
4.6364 2.1136 0.1
4.70711 2.04289 0.1
4.77782 1.97218 0.1
4.84853 1.90147 0.1
4.91924 1.83076 0.1
4.98995 1.76005 0.1
5.06066 1.68934 0.1
5.13137 1.61863 0.1
5.20208 1.54792 0.1
5.27279 1.47721 0.1
5.3435 1.4065 0.1
5.41421 1.33579 0.1
5.48492 1.26508 0.1
5.55563 1.19436 0.1
5.62635 1.12365 0.1
5.69706 1.05294 0.1
5.76777 0.982233 0.1
5.83848 0.911522 0.1
5.90919 0.840812 0.1
5.9799 0.770101 0.1
6.05061 0.69939 0.1
6.12132 0.62868 0.1