<?xml version="1.0"?>
<VTKFile type="UnstructuredGrid" version="0.1" byte_order="LittleEndian" compressor="vtkZLibDataCompressor">
 <UnstructuredGrid GhostLevel="0">
  <Piece NumberOfPoints="880" NumberOfCells="880">
   <PointData>
    <DataArray type="Float64" Name="radius"/>
0.1
0.1
0.1
0.1
0.1
0.1
0.1
0.1
0.1
0.1
0.1
0.1
0.1
0.1
0.1
0.1
0.1
0.1
0.1
0.1
0.1
0.1
0.1
0.1
0.1
0.1
0.1
0.1
0.1
0.1
0.1
0.1
0.1
0.1
0.1
0.1
0.1
0.1
0.1
0.1
0.1
0.1
0.1
0.1
0.1
0.1
0.1
0.1
0.1
0.1
0.1
0.1
0.1
0.1
0.1
0.1
0.1
0.1
0.1
0.1
0.1
0.1
0.1
0.1
0.1
0.1
0.1
0.1
0.1
0.1
0.1
0.1
0.1
0.1
0.1
0.1
0.1
0.1
0.1
0.1
0.1
0.1
0.1
0.1
0.1
0.1
0.1
0.1
0.1
0.1
0.1
0.1
0.1
0.1
0.1
0.1
0.1
0.1
0.1
0.1
0.1
0.1
0.1
0.1
0.1
0.1
0.1
0.1
0.1
0.1
0.1
0.1
0.1
0.1
0.1
0.1
0.1
0.1
0.1
0.1
0.1
0.1
0.1
0.1
0.1
0.1
0.1
0.1
0.1
0.1
0.1
0.1
0.1
0.1
0.1
0.1
0.1
0.1
0.1
0.1
0.1
0.1
0.1
0.1
0.1
0.1
0.1
0.1
0.1
0.1
0.1
0.1
0.1
0.1
0.1
0.1
0.1
0.1
0.1
0.1
0.1
0.1
0.1
0.1
0.1
0.1
0.1
0.1
0.1
0.1
0.1
0.1
0.1
0.1
0.1
0.1
0.1
0.1
0.1
0.1
0.1
0.1
0.1
0.1
0.1
0.1
0.1
0.1
0.1
0.1
0.1
0.1
0.1
0.1
0.1
0.1
0.1
0.1
0.1
0.1
0.1
0.1
0.1
0.1
0.1
0.1
0.1
0.1
0.1
0.1
0.1
0.1
0.1
0.1
0.1
0.1
0.1
0.1
0.1
0.1
0.1
0.1
0.1
0.1
0.1
0.1
0.1
0.1
0.1
0.1
0.1
0.1
0.1
0.1
0.1
0.1
0.1
0.1
0.1
0.1
0.1
0.1
0.1
0.1
0.1
0.1
0.1
0.1
0.1
0.1
0.1
0.1
0.1
0.1
0.1
0.1
0.1
0.1
0.1
0.1
0.1
0.1
0.1
0.1
0.1
0.1
0.1
0.1
0.1
0.1
0.1
0.1
0.1
0.1
0.1
0.1
0.1
0.1
0.1
0.1
0.1
0.1
0.1
0.1
0.1
0.1
0.1
0.1
0.1
0.1
0.1
0.1
0.1
0.1
0.1
0.1
0.1
0.1
0.1
0.1
0.1
0.1
0.1
0.1
0.1
0.1
0.1
0.1
0.1
0.1
0.1
0.1
0.1
0.1
0.1
0.1
0.1
0.1
0.1
0.1
0.1
0.1
0.1
0.1
0.1
0.1
0.1
0.1
0.1
0.1
0.1
0.1
0.1
0.1
0.1
0.1
0.1
0.1
0.1
0.1
0.1
0.1
0.1
0.1
0.1
0.1
0.1
0.1
0.1
0.1
0.1
0.1
0.1
0.1
0.1
0.1
0.1
0.1
0.1
0.1
0.1
0.1
0.1
0.1
0.1
0.1
0.1
0.1
0.1
0.1
0.1
0.1
0.1
0.1
0.1
0.1
0.1
0.1
0.1
0.1
0.1
0.1
0.1
0.1
0.1
0.1
0.1
0.1
0.1
0.1
0.1
0.1
0.1
0.1
0.1
0.1
0.1
0.1
0.1
0.1
0.1
0.1
0.1
0.1
0.1
0.1
0.1
0.1
0.1
0.1
0.1
0.1
0.1
0.1
0.1
0.1
0.1
0.1
0.1
0.1
0.1
0.1
0.1
0.1
0.1
0.1
0.1
0.1
0.1
0.1
0.1
0.1
0.1
0.1
0.1
0.1
0.1
0.1
0.1
0.1
0.1
0.1
0.1
0.1
0.1
0.1
0.1
0.1
0.1
0.1
0.1
0.1
0.1
0.1
0.1
0.1
0.1
0.1
0.1
0.1
0.1
0.1
0.1
0.1
0.1
0.1
0.1
0.1
0.1
0.1
0.1
0.1
0.1
0.1
0.1
0.1
0.1
0.1
0.1
0.1
0.1
0.1
0.1
0.1
0.1
0.1
0.1
0.1
0.1
0.1
0.1
0.1
0.1
0.1
0.1
0.1
0.1
0.1
0.1
0.1
0.1
0.1
0.1
0.1
0.1
0.1
0.1
0.1
0.1
0.1
0.1
0.1
0.1
0.1
0.1
0.1
0.1
0.1
0.1
0.1
0.1
0.1
0.1
0.1
0.1
0.1
0.1
0.1
0.1
0.1
0.1
0.1
0.1
0.1
0.1
0.1
0.1
0.1
0.1
0.1
0.1
0.1
0.1
0.1
0.1
0.1
0.1
0.1
0.1
0.1
0.1
0.1
0.1
0.1
0.1
0.1
0.1
0.1
0.1
0.1
0.1
0.1
0.1
0.1
0.1
0.1
0.1
0.1
0.1
0.1
0.1
0.1
0.1
0.1
0.1
0.1
0.1
0.1
0.1
0.1
0.1
0.1
0.1
0.1
0.1
0.1
0.1
0.1
0.1
0.1
0.1
0.1
0.1
0.1
0.1
0.1
0.1
0.1
0.1
0.1
0.1
0.1
0.1
0.1
0.1
0.1
0.1
0.1
0.1
0.1
0.1
0.1
0.1
0.1
0.1
0.1
0.1
0.1
0.1
0.1
0.1
0.1
0.1
0.1
0.1
0.1
0.1
0.1
0.1
0.1
0.1
0.1
0.1
0.1
0.1
0.1
0.1
0.1
0.1
0.1
0.1
0.1
0.1
0.1
0.1
0.1
0.1
0.1
0.1
0.1
0.1
0.1
0.1
0.1
0.1
0.1
0.1
0.1
0.1
0.1
0.1
0.1
0.1
0.1
0.1
0.1
0.1
0.1
0.1
0.1
0.1
0.1
0.1
0.1
0.1
0.1
0.1
0.1
0.1
0.1
0.1
0.1
0.1
0.1
0.1
0.1
0.1
0.1
0.1
0.1
0.1
0.1
0.1
0.1
0.1
0.1
0.1
0.1
0.1
0.1
0.1
0.1
0.1
0.1
0.1
0.1
0.1
0.1
0.1
0.1
0.1
0.1
0.1
0.1
0.1
0.1
0.1
0.1
0.1
0.1
0.1
0.1
0.1
0.1
0.1
0.1
0.1
0.1
0.1
0.1
0.1
0.1
0.1
0.1
0.1
0.1
0.1
0.1
0.1
0.1
0.1
0.1
0.1
0.1
0.1
0.1
0.1
0.1
0.1
0.1
0.1
0.1
0.1
0.1
0.1
0.1
0.1
0.1
0.1
0.1
0.1
0.1
0.1
0.1
0.1
0.1
0.1
0.1
0.1
0.1
0.1
0.1
0.1
0.1
0.1
0.1
0.1
0.1
0.1
0.1
0.1
0.1
0.1
0.1
0.1
0.1
0.1
0.1
0.1
0.1
0.1
0.1
0.1
0.1
0.1
0.1
0.1
0.1
0.1
0.1
0.1
0.1
0.1
0.1
0.1
0.1
0.1
0.1
0.1
0.1
0.1
0.1
0.1
0.1
0.1
0.1
0.1
0.1
0.1
0.1
0.1
0.1
0.1
0.1
0.1
0.1
0.1
0.1
0.1
0.1
0.1
0.1
0.1
0.1
0.1
0.1
0.1
0.1
0.1
0.1
0.1
0.1
0.1
0.1
0.1
0.1
0.1
0.1
0.1
0.1
0.1
0.1
0.1
0.1
0.1
0.1
0.1
0.1
0.1
0.1
0.1
0.1
0.1
0.1
0.1
0.1
0.1
0.1
0.1
0.1
0.1
0.1
0.1
0.1
0.1
0.1
0.1
0.1
0.1
0.1
    <DataArray type="Float64" Name="objectIndex"/>
0
1
2
3
4
5
6
7
8
9
10
11
12
13
14
15
16
17
18
19
20
21
22
23
24
25
26
27
28
29
30
31
32
33
34
35
36
37
38
39
40
41
42
43
44
45
46
47
48
49
50
51
52
53
54
55
56
57
58
59
60
61
62
63
64
65
66
67
68
69
70
71
72
73
74
75
76
77
78
79
80
81
82
83
84
85
86
87
88
89
90
91
92
93
94
95
96
97
98
99
100
101
102
103
104
105
106
107
108
109
110
111
112
113
114
115
116
117
118
119
120
121
122
123
124
125
126
127
128
129
130
131
132
133
134
135
136
137
138
139
140
141
142
143
144
145
146
147
148
149
150
151
152
153
154
155
156
157
158
159
160
161
162
163
164
165
166
167
168
169
170
171
172
173
174
175
176
177
178
179
180
181
182
183
184
185
186
187
188
189
190
191
192
193
194
195
196
197
198
199
200
201
202
203
204
205
206
207
208
209
210
211
212
213
214
215
216
217
218
219
220
221
222
223
224
225
226
227
228
229
230
231
232
233
234
235
236
237
238
239
240
241
242
243
244
245
246
247
248
249
250
251
252
253
254
255
256
257
258
259
260
261
262
263
264
265
266
267
268
269
270
271
272
273
274
275
276
277
278
279
280
281
282
283
284
285
286
287
288
289
290
291
292
293
294
295
296
297
298
299
300
301
302
303
304
305
306
307
308
309
310
311
312
313
314
315
316
317
318
319
320
321
322
323
324
325
326
327
328
329
330
331
332
333
334
335
336
337
338
339
340
341
342
343
344
345
346
347
348
349
350
351
352
353
354
355
356
357
358
359
360
361
362
363
364
365
366
367
368
369
370
371
372
373
374
375
376
377
378
379
380
381
382
383
384
385
386
387
388
389
390
391
392
393
394
395
396
397
398
399
400
401
402
403
404
405
406
407
408
409
410
411
412
413
414
415
416
417
418
419
420
421
422
423
424
425
426
427
428
429
430
431
432
433
434
435
436
437
438
439
440
441
442
443
444
445
446
447
448
449
450
451
452
453
454
455
456
457
458
459
460
461
462
463
464
465
466
467
468
469
470
471
472
473
474
475
476
477
478
479
480
481
482
483
484
485
486
487
488
489
490
491
492
493
494
495
496
497
498
499
500
501
502
503
504
505
506
507
508
509
510
511
512
513
514
515
516
517
518
519
520
521
522
523
524
525
526
527
528
529
530
531
532
533
534
535
536
537
538
539
540
541
542
543
544
545
546
547
548
549
550
551
552
553
554
555
556
557
558
559
560
561
562
563
564
565
566
567
568
569
570
571
572
573
574
575
576
577
578
579
580
581
582
583
584
585
586
587
588
589
590
591
592
593
594
595
596
597
598
599
600
601
602
603
604
605
606
607
608
609
610
611
612
613
614
615
616
617
618
619
620
621
622
623
624
625
626
627
628
629
630
631
632
633
634
635
636
637
638
639
640
641
642
643
644
645
646
647
648
649
650
651
652
653
654
655
656
657
658
659
660
661
662
663
664
665
666
667
668
669
670
671
672
673
674
675
676
677
678
679
680
681
682
683
684
685
686
687
688
689
690
691
692
693
694
695
696
697
698
699
700
701
702
703
704
705
706
707
708
709
710
711
712
713
714
715
716
717
718
719
720
721
722
723
724
725
726
727
728
729
730
731
732
733
734
735
736
737
738
739
740
741
742
743
744
745
746
747
748
749
750
751
752
753
754
755
756
757
758
759
760
761
762
763
764
765
766
767
768
769
770
771
772
773
774
775
776
777
778
779
780
781
782
783
784
785
786
787
788
789
790
791
792
793
794
795
796
797
798
799
800
801
802
803
804
805
806
807
808
809
810
811
812
813
814
815
816
817
818
819
820
821
822
823
824
825
826
827
828
829
830
831
832
833
834
835
836
837
838
839
840
841
842
843
844
845
846
847
848
849
850
851
852
853
854
855
856
857
858
859
860
861
862
863
864
865
866
867
868
869
870
871
872
873
874
875
876
877
878
879
    <DataArray type="Float64" Name="v" NumberOfComponents="3"/>
0 0 0
0 0 0
0 0 0
0 0 0
0 0 0
0 0 0
0 0 0
0 0 0
0 0 0
0 0 0
0 0 0
0 0 0
0 0 0
0 0 0
0 0 0
0 0 0
0 0 0
0 0 0
0 0 0
0 0 0
0 0 0
0 0 0
0 0 0
0 0 0
0 0 0
0 0 0
0 0 0
0 0 0
0 0 0
0 0 0
0 0 0
0 0 0
0 0 0
0 0 0
0 0 0
0 0 0
0 0 0
0 0 0
0 0 0
0 0 0
0 0 0
0 0 0
0 0 0
0 0 0
0 0 0
0 0 0
0 0 0
0 0 0
0 0 0
0 0 0
0 0 0
0 0 0
0 0 0
0 0 0
0 0 0
0 0 0
0 0 0
0 0 0
0 0 0
0 0 0
0 0 0
0 0 0
0 0 0
0 0 0
0 0 0
0 0 0
0 0 0
0 0 0
0 0 0
0 0 0
0 0 0
0 0 0
0 0 0
0 0 0
0 0 0
0 0 0
0 0 0
0 0 0
0 0 0
0 0 0
0 0 0
0 0 0
0 0 0
0 0 0
0 0 0
0 0 0
0 0 0
0 0 0
0 0 0
0 0 0
0 0 0
0 0 0
0 0 0
0 0 0
0 0 0
0 0 0
0 0 0
0 0 0
0 0 0
0 0 0
0 0 0
0 0 0
0 0 0
0 0 0
0 0 0
0 0 0
0 0 0
0 0 0
0 0 0
0 0 0
0 0 0
0 0 0
0 0 0
0 0 0
0 0 0
0 0 0
0 0 0
0 0 0
0 0 0
0 0 0
0 0 0
0 0 0
0 0 0
0 0 0
0 0 0
0 0 0
0 0 0
0 0 0
0 0 0
0 0 0
0 0 0
0 0 0
0 0 0
0 0 0
0 0 0
0 0 0
0 0 0
0 0 0
0 0 0
0 0 0
0 0 0
0 0 0
0 0 0
0 0 0
0 0 0
0 0 0
0 0 0
0 0 0
0 0 0
0 0 0
0 0 0
0 0 0
0 0 0
0 0 0
0 0 0
0 0 0
0 0 0
0 0 0
0 0 0
0 0 0
0 0 0
0 0 0
0 0 0
0 0 0
0 0 0
0 0 0
0 0 0
0 0 0
0 0 0
0 0 0
0 0 0
0 0 0
0 0 0
0 0 0
0 0 0
0 0 0
0 0 0
0 0 0
0 0 0
0 0 0
0 0 0
0 0 0
0 0 0
0 0 0
0 0 0
0 0 0
0 0 0
0 0 0
0 0 0
0 0 0
0 0 0
0 0 0
0 0 0
0 0 0
0 0 0
0 0 0
0 0 0
0 0 0
0 0 0
0 0 0
0 0 0
0 0 0
0 0 0
0 0 0
0 0 0
0 0 0
0 0 0
0 0 0
0 0 0
0 0 0
0 0 0
0 0 0
0 0 0
0 0 0
0 0 0
0 0 0
0 0 0
0 0 0
0 0 0
0 0 0
0 0 0
0 0 0
0 0 0
0 0 0
0 0 0
0 0 0
0 0 0
0 0 0
0 0 0
0 0 0
0 0 0
0 0 0
0 0 0
0 0 0
0 0 0
0 0 0
0 0 0
0 0 0
0 0 0
0 0 0
0 0 0
0 0 0
0 0 0
0 0 0
0 0 0
0 0 0
0 0 0
0 0 0
0 0 0
0 0 0
0 0 0
0 0 0
0 0 0
0 0 0
0 0 0
0 0 0
0 0 0
0 0 0
0 0 0
0 0 0
0 0 0
0 0 0
0 0 0
0 0 0
0 0 0
0 0 0
0 0 0
0 0 0
0 0 0
0 0 0
0 0 0
0 0 0
0 0 0
0 0 0
0 0 0
0 0 0
0 0 0
0 0 0
0 0 0
0 0 0
0 0 0
0 0 0
0 0 0
0 0 0
0 0 0
0 0 0
0 0 0
0 0 0
0 0 0
0 0 0
0 0 0
0 0 0
0 0 0
0 0 0
0 0 0
0 0 0
0 0 0
0 0 0
0 0 0
0 0 0
0 0 0
0 0 0
0 0 0
0 0 0
0 0 0
0 0 0
0 0 0
0 0 0
0 0 0
0 0 0
0 0 0
0 0 0
0 0 0
0 0 0
0 0 0
0 0 0
0 0 0
0 0 0
0 0 0
0 0 0
0 0 0
0 0 0
0 0 0
0 0 0
0 0 0
0 0 0
0 0 0
0 0 0
0 0 0
0 0 0
0 0 0
0 0 0
0 0 0
0 0 0
0 0 0
0 0 0
0 0 0
0 0 0
0 0 0
0 0 0
0 0 0
0 0 0
0 0 0
0 0 0
0 0 0
0 0 0
0 0 0
0 0 0
0 0 0
0 0 0
0 0 0
0 0 0
0 0 0
0 0 0
0 0 0
0 0 0
0 0 0
0 0 0
0 0 0
0 0 0
0 0 0
0 0 0
0 0 0
0 0 0
0 0 0
0 0 0
0 0 0
0 0 0
0 0 0
0 0 0
0 0 0
0 0 0
0 0 0
0 0 0
0 0 0
0 0 0
0 0 0
0 0 0
0 0 0
0 0 0
0 0 0
0 0 0
0 0 0
0 0 0
0 0 0
0 0 0
0 0 0
0 0 0
0 0 0
0 0 0
0 0 0
0 0 0
0 0 0
0 0 0
0 0 0
0 0 0
0 0 0
0 0 0
0 0 0
0 0 0
0 0 0
0 0 0
0 0 0
0 0 0
0 0 0
0 0 0
0 0 0
0 0 0
0 0 0
0 0 0
0 0 0
0 0 0
0 0 0
0 0 0
0 0 0
0 0 0
0 0 0
0 0 0
0 0 0
0 0 0
0 0 0
0 0 0
0 0 0
0 0 0
0 0 0
0 0 0
0 0 0
0 0 0
0 0 0
0 0 0
0 0 0
0 0 0
0 0 0
0 0 0
0 0 0
0 0 0
0 0 0
0 0 0
0 0 0
0 0 0
0 0 0
0 0 0
0 0 0
0 0 0
0 0 0
0 0 0
0 0 0
0 0 0
0 0 0
0 0 0
0 0 0
0 0 0
0 0 0
0 0 0
0 0 0
0 0 0
0 0 0
0 0 0
0 0 0
0 0 0
0 0 0
0 0 0
0 0 0
0 0 0
0 0 0
0 0 0
0 0 0
0 0 0
0 0 0
0 0 0
0 0 0
0 0 0
0 0 0
0 0 0
0 0 0
0 0 0
0 0 0
0 0 0
0 0 0
0 0 0
0 0 0
0 0 0
0 0 0
0 0 0
0 0 0
0 0 0
0 0 0
0 0 0
0 0 0
0 0 0
0 0 0
0 0 0
0 0 0
0 0 0
0 0 0
0 0 0
0 0 0
0 0 0
0 0 0
0 0 0
0 0 0
0 0 0
0 0 0
0 0 0
0 0 0
0 0 0
0 0 0
0 0 0
0 0 0
0 0 0
0 0 0
0 0 0
0 0 0
0 0 0
0 0 0
0 0 0
0 0 0
0 0 0
0 0 0
0 0 0
0 0 0
0 0 0
0 0 0
0 0 0
0 0 0
0 0 0
0 0 0
0 0 0
0 0 0
0 0 0
0 0 0
0 0 0
0 0 0
0 0 0
0 0 0
0 0 0
0 0 0
0 0 0
0 0 0
0 0 0
0 0 0
0 0 0
0 0 0
0 0 0
0 0 0
0 0 0
0 0 0
0 0 0
0 0 0
0 0 0
0 0 0
0 0 0
0 0 0
0 0 0
0 0 0
0 0 0
0 0 0
0 0 0
0 0 0
0 0 0
0 0 0
0 0 0
0 0 0
0 0 0
0 0 0
0 0 0
0 0 0
0 0 0
0 0 0
0 0 0
0 0 0
0 0 0
0 0 0
0 0 0
0 0 0
0 0 0
0 0 0
0 0 0
0 0 0
0 0 0
0 0 0
0 0 0
0 0 0
0 0 0
0 0 0
0 0 0
0 0 0
0 0 0
0 0 0
0 0 0
0 0 0
0 0 0
0 0 0
0 0 0
0 0 0
0 0 0
0 0 0
0 0 0
0 0 0
0 0 0
0 0 0
0 0 0
0 0 0
0 0 0
0 0 0
0 0 0
0 0 0
0 0 0
0 0 0
0 0 0
0 0 0
0 0 0
0 0 0
0 0 0
0 0 0
0 0 0
0 0 0
0 0 0
0 0 0
0 0 0
0 0 0
0 0 0
0 0 0
0 0 0
0 0 0
0 0 0
0 0 0
0 0 0
0 0 0
0 0 0
0 0 0
0 0 0
0 0 0
0 0 0
0 0 0
0 0 0
0 0 0
0 0 0
0 0 0
0 0 0
0 0 0
0 0 0
0 0 0
0 0 0
0 0 0
0 0 0
0 0 0
0 0 0
0 0 0
0 0 0
0 0 0
0 0 0
0 0 0
0 0 0
0 0 0
0 0 0
0 0 0
0 0 0
0 0 0
0 0 0
0 0 0
0 0 0
0 0 0
0 0 0
0 0 0
0 0 0
0 0 0
0 0 0
0 0 0
0 0 0
0 0 0
0 0 0
0 0 0
0 0 0
0 0 0
0 0 0
0 0 0
0 0 0
0 0 0
0 0 0
0 0 0
0 0 0
0 0 0
0 0 0
0 0 0
0 0 0
0 0 0
0 0 0
0 0 0
0 0 0
0 0 0
0 0 0
0 0 0
0 0 0
0 0 0
0 0 0
0 0 0
0 0 0
0 0 0
0 0 0
0 0 0
0 0 0
0 0 0
0 0 0
0 0 0
0 0 0
0 0 0
0 0 0
0 0 0
0 0 0
0 0 0
0 0 0
0 0 0
0 0 0
0 0 0
0 0 0
0 0 0
0 0 0
0 0 0
0 0 0
0 0 0
0 0 0
0 0 0
0 0 0
0 0 0
0 0 0
0 0 0
0 0 0
0 0 0
0 0 0
0 0 0
0 0 0
0 0 0
0 0 0
0 0 0
0 0 0
0 0 0
0 0 0
0 0 0
0 0 0
0 0 0
0 0 0
0 0 0
0 0 0
0 0 0
0 0 0
0 0 0
0 0 0
0 0 0
0 0 0
0 0 0
0 0 0
0 0 0
0 0 0
0 0 0
0 0 0
0 0 0
0 0 0
0 0 0
0 0 0
0 0 0
0 0 0
0 0 0
0 0 0
0 0 0
0 0 0
0 0 0
0 0 0
0 0 0
0 0 0
0 0 0
0 0 0
0 0 0
0 0 0
0 0 0
0 0 0
0 0 0
0 0 0
0 0 0
0 0 0
0 0 0
0 0 0
0 0 0
0 0 0
0 0 0
0 0 0
0 0 0
0 0 0
0 0 0
0 0 0
0 0 0
0 0 0
0 0 0
0 0 0
0 0 0
0 0 0
0 0 0
0 0 0
0 0 0
0 0 0
0 0 0
0 0 0
0 0 0
0 0 0
0 0 0
0 0 0
0 0 0
0 0 0
0 0 0
0 0 0
0 0 0
0 0 0
0 0 0
0 0 0
0 0 0
0 0 0
0 0 0
0 0 0
0 0 0
0 0 0
0 0 0
0 0 0
0 0 0
0 0 0
0 0 0
0 0 0
0 0 0
0 0 0
0 0 0
0 0 0
0 0 0
0 0 0
0 0 0
0 0 0
0 0 0
0 0 0
0 0 0
0 0 0
0 0 0
0 0 0
0 0 0
0 0 0
0 0 0
0 0 0
0 0 0
0 0 0
0 0 0
0 0 0
0 0 0
0 0 0
0 0 0
0 0 0
0 0 0
0 0 0
0 0 0
0 0 0
0 0 0
0 0 0
0 0 0
0 0 0
0 0 0
0 0 0
0 0 0
0 0 0
0 0 0
0 0 0
0 0 0
0 0 0
0 0 0
0 0 0
0 0 0
0 0 0
0 0 0
0 0 0
0 0 0
0 0 0
0 0 0
0 0 0
0 0 0
0 0 0
    <DataArray type="Float64" Name="Force" NumberOfComponents="3"/>
0 0 0
0 0 0
0 0 0
0 0 0
0 0 0
0 0 0
0 0 0
0 0 0
0 0 0
0 0 0
0 0 0
0 0 0
0 0 0
0 0 0
0 0 0
0 0 0
0 0 0
0 0 0
0 0 0
0 0 0
0 0 0
0 0 0
0 0 0
0 0 0
0 0 0
0 0 0
0 0 0
0 0 0
0 0 0
0 0 0
0 0 0
0 0 0
0 0 0
0 0 0
0 0 0
0 0 0
0 0 0
0 0 0
0 0 0
-192.339 429.346 -83.9231
0 0 0
-449.612 354.367 -80.9033
0 0 0
-33.6834 11.1149 -1.71486
0 0 0
0 0 0
-200.181 252.587 -125.577
0 0 0
-55.3297 55.7122 -26.7407
0 0 0
-27.9584 10.0371 -5.78927
0 0 0
0 0 0
-484.866 420.347 -163.784
0 0 0
0 0 0
-59.6699 135.21 -50.9083
0 0 0
-212.934 206.351 -76.5083
0 0 0
0 0 0
0 0 0
-266.702 453.713 -117.259
0 0 0
0 0 0
-97.7625 53.0313 -6.39412
0 0 0
0 0 0
-80.068 117.159 -89.2529
0 0 0
-107.705 58.3099 -8.34121
0 0 0
0 0 0
0 0 0
0 0 0
0 0 0
0 0 0
0 0 0
0 0 0
-391.445 301.025 41.5278
0 0 0
-49.7093 -16.0628 -10.0415
0 0 0
0 0 0
0 0 0
0 0 0
0 0 0
0 0 0
-33.208 27.9241 11.4952
0 0 0
0 0 0
-9.51601 17.797 8.96389
0 0 0
0 0 0
-403.9 465.814 130.638
0 0 0
-97.6677 226.286 67.0178
0 0 0
-90.0513 106.32 61.7083
0 0 0
-11.8186 17.2493 -1.52169
0 0 0
0 0 0
-144.566 65.9088 20.5548
0 0 0
0 0 0
-30.2335 37.4398 12.4481
0 0 0
0 0 0
0 0 0
0 0 0
0 0 0
0 0 0
0 0 0
0 0 0
-1.12596 712.564 -95.9235
0 0 0
0 0 0
-298.264 383.333 -121.028
0 0 0
-1882.51 952.037 -611.715
0 0 0
0 0 0
0 0 0
0 0 0
-1122.2 2249.09 -195.721
0 0 0
-31.52 60.8005 -16.8318
0 0 0
0 0 0
-173.604 242.369 -194.489
0 0 0
-37.5303 106.433 -63.3251
0 0 0
0 0 0
0 0 0
-20.7905 18.5749 -14.3101
0 0 0
-247.308 250.438 -38.5944
0 0 0
-88.4681 27.4359 -8.13057
0 0 0
0 0 0
-10.9655 2.94913 -6.83617
0 0 0
-31.573 8.11636 -3.33213
0 0 0
0 0 0
0 0 0
0 0 0
0 0 0
0 0 0
0 0 0
-51.2632 70.3477 28.8688
0 0 0
0 0 0
0 0 0
0 0 0
0 0 0
0 0 0
0 0 0
-419.721 1001.27 101.052
0 0 0
0 0 0
0 0 0
-24.901 47.8826 12.5198
0 0 0
0 0 0
0 0 0
0 0 0
40.6078 816.247 85.2905
0 0 0
-56.3242 104.837 16.3837
0 0 0
-53.3582 50.3398 19.2188
0 0 0
0 0 0
0 0 0
0 0 0
0 0 0
0 0 0
-217.148 124.327 46.6423
0 0 0
-59.2712 -18.4554 -12.4986
0 0 0
0 0 0
0 0 0
0 0 0
0 0 0
0 0 0
0 0 0
0 0 0
-2051.62 1157.59 -689.067
0 0 0
0 0 0
0 0 0
0 0 0
0 0 0
-171.528 43.9272 -6.32898
0 0 0
0 0 0
0 0 0
0 0 0
0 0 0
0 0 0
0 0 0
-165.293 177.222 -68.5333
0 0 0
0 0 0
0 0 0
-38.64 5.55446 -11.6684
0 0 0
0 0 0
0 0 0
0 0 0
-274.359 149.296 -41.5594
0 0 0
0 0 0
0 0 0
0 0 0
0 0 0
-16.399 23.0734 -7.30792
0 0 0
0 0 0
0 0 0
0 0 0
0 0 0
0 0 0
0 0 0
0 0 0
0 0 0
0 0 0
0 0 0
-1333.74 900.027 377.403
0 0 0
0 0 0
-232.008 130.9 46.3862
0 0 0
-4142.84 838.843 -1039.85
0 0 0
-1134.76 798.735 321.982
0 0 0
94.9959 621.586 -10.7426
0 0 0
-27.7117 29.5734 3.1955
0 0 0
-633.177 263.632 107.698
0 0 0
-58.5368 10.9536 11.4674
0 0 0
-70.3983 15.6543 1.37029
0 0 0
0 0 0
0 0 0
0 0 0
0 0 0
0 0 0
-197.343 297.444 82.8399
0 0 0
-10.913 15.3547 4.86522
0 0 0
0 0 0
0 0 0
0 0 0
0 0 0
0 0 0
0 0 0
-287.841 1232.1 -131.774
0 0 0
-165.095 -34.3594 -6.84496
0 0 0
0 0 0
-51.3568 13.6821 -10.3145
0 0 0
0 0 0
-335.837 379.696 -131.761
0 0 0
9.81219 133.185 -11.3031
0 0 0
0 0 0
0 0 0
-92.0713 46.9538 -44.9462
0 0 0
-158.488 54.0968 -63.6234
0 0 0
0 0 0
0 0 0
0 0 0
0 0 0
0 0 0
0 0 0
-114.099 4.95683 -17.8674
0 0 0
0 0 0
0 0 0
-120.356 336.443 -117.665
98.549 211.842 -40.1989
-24.5725 12.5098 -7.32536
0 0 0
0 0 0
0 0 0
0 0 0
0 0 0
0 0 0
0 0 0
0 0 0
0 0 0
-123.979 84.2439 32.2805
0 0 0
0 0 0
-40.7605 8.77143 8.01306
0 0 0
0 0 0
-488.752 552.58 189.846
0 0 0
4.81397 13.7772 4.38708
0 0 0
-664.627 353.627 76.9964
0 0 0
-12.8993 2.23919 2.16302
0 0 0
0 0 0
0 0 0
-1799.24 -637.356 308.512
0 0 0
-214.1 155.236 77.353
0 0 0
-110.934 184.178 93.0416
0 0 0
0 0 0
0 0 0
0 0 0
0 0 0
0 0 0
0 0 0
-37.0661 16.7422 12.3205
0 0 0
0 0 0
0 0 0
0 0 0
0 0 0
0 0 0
0 0 0
0 0 0
0 0 0
0 0 0
0 0 0
0 0 0
0 0 0
0 0 0
0 0 0
0 0 0
0 0 0
0 0 0
0 0 0
0 0 0
0 0 0
0 0 0
0 0 0
0 0 0
0 0 0
0 0 0
0 0 0
0 0 0
0 0 0
0 0 0
0 0 0
0 0 0
0 0 0
0 0 0
0 0 0
0 0 0
0 0 0
0 0 0
0 0 0
0 0 0
0 0 0
0 0 0
0 0 0
0 0 0
0 0 0
0 0 0
0 0 0
0 0 0
0 0 0
0 0 0
0 0 0
0 0 0
0 0 0
0 0 0
0 0 0
0 0 0
0 0 0
0 0 0
0 0 0
0 0 0
0 0 0
0 0 0
0 0 0
0 0 0
0 0 0
0 0 0
0 0 0
0 0 0
0 0 0
0 0 0
0 0 0
0 0 0
0 0 0
0 0 0
0 0 0
0 0 0
0 0 0
0 0 0
0 0 0
0 0 0
0 0 0
0 0 0
0 0 0
0 0 0
0 0 0
0 0 0
0 0 0
0 0 0
0 0 0
0 0 0
0 0 0
0 0 0
0 0 0
0 0 0
0 0 0
0 0 0
0 0 0
0 0 0
0 0 0
0 0 0
0 0 0
0 0 0
0 0 0
0 0 0
0 0 0
0 0 0
0 0 0
0 0 0
0 0 0
0 0 0
0 0 0
0 0 0
0 0 0
0 0 0
0 0 0
0 0 0
0 0 0
0 0 0
0 0 0
0 0 0
0 0 0
0 0 0
0 0 0
-552.524 -206.825 -37.7444
-106.08 -183.935 -51.6521
0 0 0
-60.9046 -40.0171 -18.9563
0 0 0
0 0 0
0 0 0
0 0 0
0 0 0
-26.2903 -6.80316 -6.40818
0 0 0
0 0 0
0 0 0
-563.575 -692.781 -216.49
0 0 0
-135.918 -13.1571 -25.6398
0 0 0
-758.794 779.957 56.7665
0 0 0
0 0 0
0 0 0
0 0 0
0 0 0
-47.0959 20.5414 -11.186
0 0 0
0 0 0
0 0 0
-53.8282 -34.1862 -16.5067
0 0 0
0 0 0
-110.658 -133.083 -23.7932
0 0 0
0 0 0
0 0 0
0 0 0
0 0 0
-1024.92 -606.368 277.418
0 0 0
0 0 0
0 0 0
0 0 0
-339.103 -222.807 104.121
0 0 0
0 0 0
0 0 0
-144.333 -102.284 31.3083
0 0 0
-61.9472 -19.8183 12.7707
0 0 0
-192.351 -117.44 49.4265
0 0 0
0 0 0
0 0 0
-53.7672 -33.0138 16.3139
0 0 0
-336.7 -74.5882 97.7479
0 0 0
0 0 0
0 0 0
-101.414 -64.98 52.5775
0 0 0
-146.722 85.6961 -12.3104
0 0 0
0 0 0
0 0 0
-143.939 -91.4154 43.9423
0 0 0
0 0 0
-74.2393 -63.5382 14.2069
0 0 0
0 0 0
0 0 0
0 0 0
0 0 0
-198.39 -277.412 -47.6262
0 0 0
-1234.24 -1079.96 -545.619
0 0 0
0 0 0
-258.345 -38.0571 -40.1087
-421.409 -724.914 -217.59
-23.1728 -30.2409 -8.54281
0 0 0
-993.498 -580.333 -249.309
-348.301 -603.3 -150.742
0 0 0
-1022.68 -893.117 -226.141
0 0 0
-1614.84 -1275.85 -428.505
0 0 0
0 0 0
0 0 0
0 0 0
-38.515 -9.91022 -9.13872
0 0 0
0 0 0
0 0 0
0 0 0
0 0 0
0 0 0
0 0 0
0 0 0
31.6269 -110.04 43.8197
0 0 0
-157.342 -191.049 -7.19154
0 0 0
0 0 0
0 0 0
0 0 0
0 0 0
0 0 0
0 0 0
-151.617 -135.353 11.3988
0 0 0
0 0 0
0 0 0
0 0 0
-303.557 -174.224 90.2094
-478.156 -822.53 245.582
0 0 0
0 0 0
0 0 0
0 0 0
0 0 0
0 0 0
0 0 0
0 0 0
0 0 0
0 0 0
-399.19 -444.965 34.079
0 0 0
-31.8492 -7.38455 7.38476
0 0 0
0 0 0
-380.333 -538.109 134.571
0 0 0
-229.225 -244.18 89.5485
0 0 0
-96.3226 -81.5498 30.8595
0 0 0
-140.353 -188.748 42.0253
0 0 0
0 0 0
0 0 0
0 0 0
0 0 0
0 0 0
0 0 0
0 0 0
0 0 0
0 0 0
-1871.02 -699.599 -570.078
0 0 0
0 0 0
-1406.33 -2140.19 -516.104
0 0 0
-131.009 -190.447 -69.6191
0 0 0
0 0 0
0 0 0
-27.467 -39.5214 -17.5917
0 0 0
-471.819 -218.759 -99.8403
0 0 0
0 0 0
0 0 0
0 0 0
0 0 0
0 0 0
0 0 0
-38.0936 -21.9966 -8.63162
0 0 0
0 0 0
0 0 0
-90.94 -119.952 -37.7913
0 0 0
0 0 0
0 0 0
0 0 0
0 0 0
0 0 0
-90.9433 -96.8892 -31.1084
0 0 0
0 0 0
0 0 0
0 0 0
0 0 0
0 0 0
0 0 0
0 0 0
0 0 0
0 0 0
0 0 0
0 0 0
-1241.18 -5640.19 493.223
0 0 0
-819.35 -1148.09 507.846
0 0 0
-268.22 -159.937 -7.28174
0 0 0
0 0 0
0 0 0
0 0 0
0 0 0
-300.647 -469.076 87.3703
0 0 0
0 0 0
0 0 0
-19.1614 -26.3188 8.40796
0 0 0
-491.635 -251.885 138.429
0 0 0
0 0 0
0 0 0
0 0 0
-517.956 -393.263 -88.475
0 0 0
-130.234 -138.506 48.3957
0 0 0
0 0 0
0 0 0
0 0 0
0 0 0
0 0 0
0 0 0
0 0 0
-83.3514 -116.88 -13.0516
0 0 0
-639.483 -421.867 -96.3312
0 0 0
0 0 0
0 0 0
0 0 0
0 0 0
0 0 0
0 0 0
0 0 0
-20.9378 -825.342 13.8232
0 0 0
0 0 0
0 0 0
-23.0394 -31.4749 -8.7645
0 0 0
-193.691 -63.7014 -41.421
0 0 0
0 0 0
0 0 0
0 0 0
0 0 0
-59.0422 -124.951 -12.0152
0 0 0
-41.0604 -75.4868 -15.4629
0 0 0
0 0 0
0 0 0
0 0 0
0 0 0
-57.3786 -54.2949 -20.97
0 0 0
0 0 0
0 0 0
0 0 0
0 0 0
0 0 0
0 0 0
0 0 0
0 0 0
0 0 0
0 0 0
0 0 0
-887.189 -2048.1 511.74
0 0 0
0 0 0
-752.681 -1627.29 1223.43
0 0 0
-31.7714 -150.844 54.7364
0 0 0
-933.782 -615.349 76.9195
0 0 0
-20.8391 -36.6092 7.11412
0 0 0
-155.634 3.36463 107.304
0 0 0
-331.186 -202.682 76.7085
0 0 0
-109.188 -131.376 58.4883
0 0 0
0 0 0
0 0 0
0 0 0
0 0 0
-300.999 -153.007 117.006
0 0 0
-134.354 -70.4075 55.2574
0 0 0
0 0 0
0 0 0
0 0 0
0 0 0
0 0 0
0 0 0
0 0 0
0 0 0
0 0 0
0 0 0
0 0 0
0 0 0
0 0 0
0 0 0
0 0 0
0 0 0
0 0 0
0 0 0
0 0 0
0 0 0
0 0 0
0 0 0
0 0 0
0 0 0
0 0 0
0 0 0
0 0 0
0 0 0
0 0 0
0 0 0
0 0 0
0 0 0
0 0 0
0 0 0
0 0 0
0 0 0
0 0 0
0 0 0
0 0 0
0 0 0
0 0 0
0 0 0
0 0 0
0 0 0
0 0 0
0 0 0
0 0 0
0 0 0
0 0 0
0 0 0
0 0 0
0 0 0
0 0 0
0 0 0
0 0 0
0 0 0
0 0 0
0 0 0
0 0 0
0 0 0
0 0 0
0 0 0
0 0 0
0 0 0
0 0 0
0 0 0
0 0 0
0 0 0
0 0 0
0 0 0
0 0 0
0 0 0
0 0 0
0 0 0
0 0 0
0 0 0
0 0 0
0 0 0
0 0 0
0 0 0
0 0 0
0 0 0
0 0 0
0 0 0
0 0 0
0 0 0
0 0 0
-801.888 -89.3328 -152.663
0 0 0
0 0 0
0 0 0
0 0 0
0 0 0
0 0 0
0 0 0
0 0 0
-21.8426 10.8251 0.162039
0 0 0
0 0 0
0 0 0
0 0 0
0 0 0
-2239.21 -246.887 -53.8832
0 0 0
-23.2213 -6.93217 -17.7557
-22.8169 6.81422 -19.9209
-1957.45 -268.12 449.723
0 0 0
-28.1426 -6.82183 -3.70052
-28.5495 6.92991 -4.79679
0 0 0
0 0 0
-1316.17 -39.8207 -174.452
0 0 0
0 0 0
0 0 0
0 0 0
0 0 0
0 0 0
0 0 0
0 0 0
0 0 0
0 0 0
0 0 0
0 0 0
0 0 0
   </PointData>
   <CellData>
   </CellData>
   <Points>
    <DataArray type="Float64" Name="Points" NumberOfComponents="3"/>
4 3.25 0
4.07071 3.32071 0
4.14142 3.39142 0
4.21213 3.46213 0
4.28284 3.53284 0
4.35355 3.60355 0
4.42426 3.67426 0
4.49498 3.74498 0
4.56569 3.81569 0
4.6364 3.8864 0
4.70711 3.95711 0
4.77782 4.02782 0
4.84853 4.09853 0
4.91924 4.16924 0
4.98995 4.23995 0
5.06066 4.31066 0
5.13137 4.38137 0
5.20208 4.45208 0
5.27279 4.52279 0
5.3435 4.5935 0
5.41421 4.66421 0
5.48492 4.73492 0
5.55563 4.80563 0
5.62635 4.87635 0
5.69706 4.94706 0
5.76777 5.01777 0
5.83848 5.08848 0
5.90919 5.15919 0
5.9799 5.2299 0
6.05061 5.30061 0
6.12132 5.37132 0
6.19203 5.44203 0
6.26274 5.51274 0
6.33345 5.58345 0
6.40416 5.65416 0
6.47487 5.72487 0
6.54558 5.79558 0
6.6163 5.8663 0
4 3.25 0.1
4.07071 3.32071 0.1
4.14142 3.39142 0.1
4.21213 3.46213 0.1
4.28284 3.53284 0.1
4.35355 3.60355 0.1
4.42426 3.67426 0.1
4.49498 3.74498 0.1
4.56569 3.81569 0.1
4.6364 3.8864 0.1
4.70711 3.95711 0.1
4.77782 4.02782 0.1
4.84853 4.09853 0.1
4.91924 4.16924 0.1
4.98995 4.23995 0.1
5.06066 4.31066 0.1
5.13137 4.38137 0.1
5.20208 4.45208 0.1
5.27279 4.52279 0.1
5.3435 4.5935 0.1
5.41421 4.66421 0.1
5.48492 4.73492 0.1
5.55563 4.80563 0.1
5.62635 4.87635 0.1
5.69706 4.94706 0.1
5.76777 5.01777 0.1
5.83848 5.08848 0.1
5.90919 5.15919 0.1
5.9799 5.2299 0.1
6.05061 5.30061 0.1
6.12132 5.37132 0.1
6.19203 5.44203 0.1
6.26274 5.51274 0.1
6.33345 5.58345 0.1
6.40416 5.65416 0.1
6.47487 5.72487 0.1
6.54558 5.79558 0.1
6.6163 5.8663 0.1
4 3.25 0.2
4.07071 3.32071 0.2
4.14142 3.39142 0.2
4.21213 3.46213 0.2
4.28284 3.53284 0.2
4.35355 3.60355 0.2
4.42426 3.67426 0.2
4.49498 3.74498 0.2
4.56569 3.81569 0.2
4.6364 3.8864 0.2
4.70711 3.95711 0.2
4.77782 4.02782 0.2
4.84853 4.09853 0.2
4.91924 4.16924 0.2
4.98995 4.23995 0.2
5.06066 4.31066 0.2
5.13137 4.38137 0.2
5.20208 4.45208 0.2
5.27279 4.52279 0.2
5.3435 4.5935 0.2
5.41421 4.66421 0.2
5.48492 4.73492 0.2
5.55563 4.80563 0.2
5.62635 4.87635 0.2
5.69706 4.94706 0.2
5.76777 5.01777 0.2
5.83848 5.08848 0.2
5.90919 5.15919 0.2
5.9799 5.2299 0.2
6.05061 5.30061 0.2
6.12132 5.37132 0.2
6.19203 5.44203 0.2
6.26274 5.51274 0.2
6.33345 5.58345 0.2
6.40416 5.65416 0.2
6.47487 5.72487 0.2
6.54558 5.79558 0.2
6.6163 5.8663 0.2
4 3.25 0.3
4.07071 3.32071 0.3
4.14142 3.39142 0.3
4.21213 3.46213 0.3
4.28284 3.53284 0.3
4.35355 3.60355 0.3
4.42426 3.67426 0.3
4.49498 3.74498 0.3
4.56569 3.81569 0.3
4.6364 3.8864 0.3
4.70711 3.95711 0.3
4.77782 4.02782 0.3
4.84853 4.09853 0.3
4.91924 4.16924 0.3
4.98995 4.23995 0.3
5.06066 4.31066 0.3
5.13137 4.38137 0.3
5.20208 4.45208 0.3
5.27279 4.52279 0.3
5.3435 4.5935 0.3
5.41421 4.66421 0.3
5.48492 4.73492 0.3
5.55563 4.80563 0.3
5.62635 4.87635 0.3
5.69706 4.94706 0.3
5.76777 5.01777 0.3
5.83848 5.08848 0.3
5.90919 5.15919 0.3
5.9799 5.2299 0.3
6.05061 5.30061 0.3
6.12132 5.37132 0.3
6.19203 5.44203 0.3
6.26274 5.51274 0.3
6.33345 5.58345 0.3
6.40416 5.65416 0.3
6.47487 5.72487 0.3
6.54558 5.79558 0.3
6.6163 5.8663 0.3
4 3.25 0.4
4.07071 3.32071 0.4
4.14142 3.39142 0.4
4.21213 3.46213 0.4
4.28284 3.53284 0.4
4.35355 3.60355 0.4
4.42426 3.67426 0.4
4.49498 3.74498 0.4
4.56569 3.81569 0.4
4.6364 3.8864 0.4
4.70711 3.95711 0.4
4.77782 4.02782 0.4
4.84853 4.09853 0.4
4.91924 4.16924 0.4
4.98995 4.23995 0.4
5.06066 4.31066 0.4
5.13137 4.38137 0.4
5.20208 4.45208 0.4
5.27279 4.52279 0.4
5.3435 4.5935 0.4
5.41421 4.66421 0.4
5.48492 4.73492 0.4
5.55563 4.80563 0.4
5.62635 4.87635 0.4
5.69706 4.94706 0.4
5.76777 5.01777 0.4
5.83848 5.08848 0.4
5.90919 5.15919 0.4
5.9799 5.2299 0.4
6.05061 5.30061 0.4
6.12132 5.37132 0.4
6.19203 5.44203 0.4
6.26274 5.51274 0.4
6.33345 5.58345 0.4
6.40416 5.65416 0.4
6.47487 5.72487 0.4
6.54558 5.79558 0.4
6.6163 5.8663 0.4
4 3.25 0.5
4.07071 3.32071 0.5
4.14142 3.39142 0.5
4.21213 3.46213 0.5
4.28284 3.53284 0.5
4.35355 3.60355 0.5
4.42426 3.67426 0.5
4.49498 3.74498 0.5
4.56569 3.81569 0.5
4.6364 3.8864 0.5
4.70711 3.95711 0.5
4.77782 4.02782 0.5
4.84853 4.09853 0.5
4.91924 4.16924 0.5
4.98995 4.23995 0.5
5.06066 4.31066 0.5
5.13137 4.38137 0.5
5.20208 4.45208 0.5
5.27279 4.52279 0.5
5.3435 4.5935 0.5
5.41421 4.66421 0.5
5.48492 4.73492 0.5
5.55563 4.80563 0.5
5.62635 4.87635 0.5
5.69706 4.94706 0.5
5.76777 5.01777 0.5
5.83848 5.08848 0.5
5.90919 5.15919 0.5
5.9799 5.2299 0.5
6.05061 5.30061 0.5
6.12132 5.37132 0.5
6.19203 5.44203 0.5
6.26274 5.51274 0.5
6.33345 5.58345 0.5
6.40416 5.65416 0.5
6.47487 5.72487 0.5
6.54558 5.79558 0.5
6.6163 5.8663 0.5
4 3.25 0.6
4.07071 3.32071 0.6
4.14142 3.39142 0.6
4.21213 3.46213 0.6
4.28284 3.53284 0.6
4.35355 3.60355 0.6
4.42426 3.67426 0.6
4.49498 3.74498 0.6
4.56569 3.81569 0.6
4.6364 3.8864 0.6
4.70711 3.95711 0.6
4.77782 4.02782 0.6
4.84853 4.09853 0.6
4.91924 4.16924 0.6
4.98995 4.23995 0.6
5.06066 4.31066 0.6
5.13137 4.38137 0.6
5.20208 4.45208 0.6
5.27279 4.52279 0.6
5.3435 4.5935 0.6
5.41421 4.66421 0.6
5.48492 4.73492 0.6
5.55563 4.80563 0.6
5.62635 4.87635 0.6
5.69706 4.94706 0.6
5.76777 5.01777 0.6
5.83848 5.08848 0.6
5.90919 5.15919 0.6
5.9799 5.2299 0.6
6.05061 5.30061 0.6
6.12132 5.37132 0.6
6.19203 5.44203 0.6
6.26274 5.51274 0.6
6.33345 5.58345 0.6
6.40416 5.65416 0.6
6.47487 5.72487 0.6
6.54558 5.79558 0.6
6.6163 5.8663 0.6
4 3.25 0.7
4.07071 3.32071 0.7
4.14142 3.39142 0.7
4.21213 3.46213 0.7
4.28284 3.53284 0.7
4.35355 3.60355 0.7
4.42426 3.67426 0.7
4.49498 3.74498 0.7
4.56569 3.81569 0.7
4.6364 3.8864 0.7
4.70711 3.95711 0.7
4.77782 4.02782 0.7
4.84853 4.09853 0.7
4.91924 4.16924 0.7
4.98995 4.23995 0.7
5.06066 4.31066 0.7
5.13137 4.38137 0.7
5.20208 4.45208 0.7
5.27279 4.52279 0.7
5.3435 4.5935 0.7
5.41421 4.66421 0.7
5.48492 4.73492 0.7
5.55563 4.80563 0.7
5.62635 4.87635 0.7
5.69706 4.94706 0.7
5.76777 5.01777 0.7
5.83848 5.08848 0.7
5.90919 5.15919 0.7
5.9799 5.2299 0.7
6.05061 5.30061 0.7
6.12132 5.37132 0.7
6.19203 5.44203 0.7
6.26274 5.51274 0.7
6.33345 5.58345 0.7
6.40416 5.65416 0.7
6.47487 5.72487 0.7
6.54558 5.79558 0.7
6.6163 5.8663 0.7
4 3.25 0.8
4.07071 3.32071 0.8
4.14142 3.39142 0.8
4.21213 3.46213 0.8
4.28284 3.53284 0.8
4.35355 3.60355 0.8
4.42426 3.67426 0.8
4.49498 3.74498 0.8
4.56569 3.81569 0.8
4.6364 3.8864 0.8
4.70711 3.95711 0.8
4.77782 4.02782 0.8
4.84853 4.09853 0.8
4.91924 4.16924 0.8
4.98995 4.23995 0.8
5.06066 4.31066 0.8
5.13137 4.38137 0.8
5.20208 4.45208 0.8
5.27279 4.52279 0.8
5.3435 4.5935 0.8
5.41421 4.66421 0.8
5.48492 4.73492 0.8
5.55563 4.80563 0.8
5.62635 4.87635 0.8
5.69706 4.94706 0.8
5.76777 5.01777 0.8
5.83848 5.08848 0.8
5.90919 5.15919 0.8
5.9799 5.2299 0.8
6.05061 5.30061 0.8
6.12132 5.37132 0.8
6.19203 5.44203 0.8
6.26274 5.51274 0.8
6.33345 5.58345 0.8
6.40416 5.65416 0.8
6.47487 5.72487 0.8
6.54558 5.79558 0.8
6.6163 5.8663 0.8
4 3.25 0.9
4.07071 3.32071 0.9
4.14142 3.39142 0.9
4.21213 3.46213 0.9
4.28284 3.53284 0.9
4.35355 3.60355 0.9
4.42426 3.67426 0.9
4.49498 3.74498 0.9
4.56569 3.81569 0.9
4.6364 3.8864 0.9
4.70711 3.95711 0.9
4.77782 4.02782 0.9
4.84853 4.09853 0.9
4.91924 4.16924 0.9
4.98995 4.23995 0.9
5.06066 4.31066 0.9
5.13137 4.38137 0.9
5.20208 4.45208 0.9
5.27279 4.52279 0.9
5.3435 4.5935 0.9
5.41421 4.66421 0.9
5.48492 4.73492 0.9
5.55563 4.80563 0.9
5.62635 4.87635 0.9
5.69706 4.94706 0.9
5.76777 5.01777 0.9
5.83848 5.08848 0.9
5.90919 5.15919 0.9
5.9799 5.2299 0.9
6.05061 5.30061 0.9
6.12132 5.37132 0.9
6.19203 5.44203 0.9
6.26274 5.51274 0.9
6.33345 5.58345 0.9
6.40416 5.65416 0.9
6.47487 5.72487 0.9
6.54558 5.79558 0.9
6.6163 5.8663 0.9
4 3.25 1
4.07071 3.32071 1
4.14142 3.39142 1
4.21213 3.46213 1
4.28284 3.53284 1
4.35355 3.60355 1
4.42426 3.67426 1
4.49498 3.74498 1
4.56569 3.81569 1
4.6364 3.8864 1
4.70711 3.95711 1
4.77782 4.02782 1
4.84853 4.09853 1
4.91924 4.16924 1
4.98995 4.23995 1
5.06066 4.31066 1
5.13137 4.38137 1
5.20208 4.45208 1
5.27279 4.52279 1
5.3435 4.5935 1
5.41421 4.66421 1
5.48492 4.73492 1
5.55563 4.80563 1
5.62635 4.87635 1
5.69706 4.94706 1
5.76777 5.01777 1
5.83848 5.08848 1
5.90919 5.15919 1
5.9799 5.2299 1
6.05061 5.30061 1
6.12132 5.37132 1
6.19203 5.44203 1
6.26274 5.51274 1
6.33345 5.58345 1
6.40416 5.65416 1
6.47487 5.72487 1
6.54558 5.79558 1
6.6163 5.8663 1
4 2.75 0
4.07071 2.67929 0
4.14142 2.60858 0
4.21213 2.53787 0
4.28284 2.46716 0
4.35355 2.39645 0
4.42426 2.32574 0
4.49498 2.25502 0
4.56569 2.18431 0
4.6364 2.1136 0
4.70711 2.04289 0
4.77782 1.97218 0
4.84853 1.90147 0
4.91924 1.83076 0
4.98995 1.76005 0
5.06066 1.68934 0
5.13137 1.61863 0
5.20208 1.54792 0
5.27279 1.47721 0
5.3435 1.4065 0
5.41421 1.33579 0
5.48492 1.26508 0
5.55563 1.19436 0
5.62635 1.12365 0
5.69706 1.05294 0
5.76777 0.982233 0
5.83848 0.911522 0
5.90919 0.840812 0
5.9799 0.770101 0
6.05061 0.69939 0
6.12132 0.62868 0
6.19203 0.557969 0
6.26274 0.487258 0
6.33345 0.416548 0
6.40416 0.345837 0