<?xml version="1.0"?>
<VTKFile type="UnstructuredGrid" version="0.1" byte_order="LittleEndian" compressor="vtkZLibDataCompressor">
 <UnstructuredGrid GhostLevel="0">
  <Piece NumberOfPoints="880" NumberOfCells="880">
   <PointData>
    <DataArray type="Float64" Name="radius"/>
0.1
0.1
0.1
0.1
0.1
0.1
0.1
0.1
0.1
0.1
0.1
0.1
0.1
0.1
0.1
0.1
0.1
0.1
0.1
0.1
0.1
0.1
0.1
0.1
0.1
0.1
0.1
0.1
0.1
0.1
0.1
0.1
0.1
0.1
0.1
0.1
0.1
0.1
0.1
0.1
0.1
0.1
0.1
0.1
0.1
0.1
0.1
0.1
0.1
0.1
0.1
0.1
0.1
0.1
0.1
0.1
0.1
0.1
0.1
0.1
0.1
0.1
0.1
0.1
0.1
0.1
0.1
0.1
0.1
0.1
0.1
0.1
0.1
0.1
0.1
0.1
0.1
0.1
0.1
0.1
0.1
0.1
0.1
0.1
0.1
0.1
0.1
0.1
0.1
0.1
0.1
0.1
0.1
0.1
0.1
0.1
0.1
0.1
0.1
0.1
0.1
0.1
0.1
0.1
0.1
0.1
0.1
0.1
0.1
0.1
0.1
0.1
0.1
0.1
0.1
0.1
0.1
0.1
0.1
0.1
0.1
0.1
0.1
0.1
0.1
0.1
0.1
0.1
0.1
0.1
0.1
0.1
0.1
0.1
0.1
0.1
0.1
0.1
0.1
0.1
0.1
0.1
0.1
0.1
0.1
0.1
0.1
0.1
0.1
0.1
0.1
0.1
0.1
0.1
0.1
0.1
0.1
0.1
0.1
0.1
0.1
0.1
0.1
0.1
0.1
0.1
0.1
0.1
0.1
0.1
0.1
0.1
0.1
0.1
0.1
0.1
0.1
0.1
0.1
0.1
0.1
0.1
0.1
0.1
0.1
0.1
0.1
0.1
0.1
0.1
0.1
0.1
0.1
0.1
0.1
0.1
0.1
0.1
0.1
0.1
0.1
0.1
0.1
0.1
0.1
0.1
0.1
0.1
0.1
0.1
0.1
0.1
0.1
0.1
0.1
0.1
0.1
0.1
0.1
0.1
0.1
0.1
0.1
0.1
0.1
0.1
0.1
0.1
0.1
0.1
0.1
0.1
0.1
0.1
0.1
0.1
0.1
0.1
0.1
0.1
0.1
0.1
0.1
0.1
0.1
0.1
0.1
0.1
0.1
0.1
0.1
0.1
0.1
0.1
0.1
0.1
0.1
0.1
0.1
0.1
0.1
0.1
0.1
0.1
0.1
0.1
0.1
0.1
0.1
0.1
0.1
0.1
0.1
0.1
0.1
0.1
0.1
0.1
0.1
0.1
0.1
0.1
0.1
0.1
0.1
0.1
0.1
0.1
0.1
0.1
0.1
0.1
0.1
0.1
0.1
0.1
0.1
0.1
0.1
0.1
0.1
0.1
0.1
0.1
0.1
0.1
0.1
0.1
0.1
0.1
0.1
0.1
0.1
0.1
0.1
0.1
0.1
0.1
0.1
0.1
0.1
0.1
0.1
0.1
0.1
0.1
0.1
0.1
0.1
0.1
0.1
0.1
0.1
0.1
0.1
0.1
0.1
0.1
0.1
0.1
0.1
0.1
0.1
0.1
0.1
0.1
0.1
0.1
0.1
0.1
0.1
0.1
0.1
0.1
0.1
0.1
0.1
0.1
0.1
0.1
0.1
0.1
0.1
0.1
0.1
0.1
0.1
0.1
0.1
0.1
0.1
0.1
0.1
0.1
0.1
0.1
0.1
0.1
0.1
0.1
0.1
0.1
0.1
0.1
0.1
0.1
0.1
0.1
0.1
0.1
0.1
0.1
0.1
0.1
0.1
0.1
0.1
0.1
0.1
0.1
0.1
0.1
0.1
0.1
0.1
0.1
0.1
0.1
0.1
0.1
0.1
0.1
0.1
0.1
0.1
0.1
0.1
0.1
0.1
0.1
0.1
0.1
0.1
0.1
0.1
0.1
0.1
0.1
0.1
0.1
0.1
0.1
0.1
0.1
0.1
0.1
0.1
0.1
0.1
0.1
0.1
0.1
0.1
0.1
0.1
0.1
0.1
0.1
0.1
0.1
0.1
0.1
0.1
0.1
0.1
0.1
0.1
0.1
0.1
0.1
0.1
0.1
0.1
0.1
0.1
0.1
0.1
0.1
0.1
0.1
0.1
0.1
0.1
0.1
0.1
0.1
0.1
0.1
0.1
0.1
0.1
0.1
0.1
0.1
0.1
0.1
0.1
0.1
0.1
0.1
0.1
0.1
0.1
0.1
0.1
0.1
0.1
0.1
0.1
0.1
0.1
0.1
0.1
0.1
0.1
0.1
0.1
0.1
0.1
0.1
0.1
0.1
0.1
0.1
0.1
0.1
0.1
0.1
0.1
0.1
0.1
0.1
0.1
0.1
0.1
0.1
0.1
0.1
0.1
0.1
0.1
0.1
0.1
0.1
0.1
0.1
0.1
0.1
0.1
0.1
0.1
0.1
0.1
0.1
0.1
0.1
0.1
0.1
0.1
0.1
0.1
0.1
0.1
0.1
0.1
0.1
0.1
0.1
0.1
0.1
0.1
0.1
0.1
0.1
0.1
0.1
0.1
0.1
0.1
0.1
0.1
0.1
0.1
0.1
0.1
0.1
0.1
0.1
0.1
0.1
0.1
0.1
0.1
0.1
0.1
0.1
0.1
0.1
0.1
0.1
0.1
0.1
0.1
0.1
0.1
0.1
0.1
0.1
0.1
0.1
0.1
0.1
0.1
0.1
0.1
0.1
0.1
0.1
0.1
0.1
0.1
0.1
0.1
0.1
0.1
0.1
0.1
0.1
0.1
0.1
0.1
0.1
0.1
0.1
0.1
0.1
0.1
0.1
0.1
0.1
0.1
0.1
0.1
0.1
0.1
0.1
0.1
0.1
0.1
0.1
0.1
0.1
0.1
0.1
0.1
0.1
0.1
0.1
0.1
0.1
0.1
0.1
0.1
0.1
0.1
0.1
0.1
0.1
0.1
0.1
0.1
0.1
0.1
0.1
0.1
0.1
0.1
0.1
0.1
0.1
0.1
0.1
0.1
0.1
0.1
0.1
0.1
0.1
0.1
0.1
0.1
0.1
0.1
0.1
0.1
0.1
0.1
0.1
0.1
0.1
0.1
0.1
0.1
0.1
0.1
0.1
0.1
0.1
0.1
0.1
0.1
0.1
0.1
0.1
0.1
0.1
0.1
0.1
0.1
0.1
0.1
0.1
0.1
0.1
0.1
0.1
0.1
0.1
0.1
0.1
0.1
0.1
0.1
0.1
0.1
0.1
0.1
0.1
0.1
0.1
0.1
0.1
0.1
0.1
0.1
0.1
0.1
0.1
0.1
0.1
0.1
0.1
0.1
0.1
0.1
0.1
0.1
0.1
0.1
0.1
0.1
0.1
0.1
0.1
0.1
0.1
0.1
0.1
0.1
0.1
0.1
0.1
0.1
0.1
0.1
0.1
0.1
0.1
0.1
0.1
0.1
0.1
0.1
0.1
0.1
0.1
0.1
0.1
0.1
0.1
0.1
0.1
0.1
0.1
0.1
0.1
0.1
0.1
0.1
0.1
0.1
0.1
0.1
0.1
0.1
0.1
0.1
0.1
0.1
0.1
0.1
0.1
0.1
0.1
0.1
0.1
0.1
0.1
0.1
0.1
0.1
0.1
0.1
0.1
0.1
0.1
0.1
0.1
0.1
0.1
0.1
0.1
0.1
0.1
0.1
0.1
0.1
0.1
0.1
0.1
0.1
0.1
0.1
0.1
0.1
0.1
0.1
0.1
0.1
0.1
0.1
0.1
0.1
0.1
0.1
0.1
0.1
0.1
0.1
0.1
0.1
0.1
0.1
0.1
0.1
0.1
0.1
0.1
0.1
0.1
0.1
0.1
0.1
0.1
0.1
0.1
0.1
0.1
0.1
0.1
0.1
0.1
0.1
0.1
0.1
0.1
0.1
0.1
0.1
0.1
    <DataArray type="Float64" Name="objectIndex"/>
0
1
2
3
4
5
6
7
8
9
10
11
12
13
14
15
16
17
18
19
20
21
22
23
24
25
26
27
28
29
30
31
32
33
34
35
36
37
38
39
40
41
42
43
44
45
46
47
48
49
50
51
52
53
54
55
56
57
58
59
60
61
62
63
64
65
66
67
68
69
70
71
72
73
74
75
76
77
78
79
80
81
82
83
84
85
86
87
88
89
90
91
92
93
94
95
96
97
98
99
100
101
102
103
104
105
106
107
108
109
110
111
112
113
114
115
116
117
118
119
120
121
122
123
124
125
126
127
128
129
130
131
132
133
134
135
136
137
138
139
140
141
142
143
144
145
146
147
148
149
150
151
152
153
154
155
156
157
158
159
160
161
162
163
164
165
166
167
168
169
170
171
172
173
174
175
176
177
178
179
180
181
182
183
184
185
186
187
188
189
190
191
192
193
194
195
196
197
198
199
200
201
202
203
204
205
206
207
208
209
210
211
212
213
214
215
216
217
218
219
220
221
222
223
224
225
226
227
228
229
230
231
232
233
234
235
236
237
238
239
240
241
242
243
244
245
246
247
248
249
250
251
252
253
254
255
256
257
258
259
260
261
262
263
264
265
266
267
268
269
270
271
272
273
274
275
276
277
278
279
280
281
282
283
284
285
286
287
288
289
290
291
292
293
294
295
296
297
298
299
300
301
302
303
304
305
306
307
308
309
310
311
312
313
314
315
316
317
318
319
320
321
322
323
324
325
326
327
328
329
330
331
332
333
334
335
336
337
338
339
340
341
342
343
344
345
346
347
348
349
350
351
352
353
354
355
356
357
358
359
360
361
362
363
364
365
366
367
368
369
370
371
372
373
374
375
376
377
378
379
380
381
382
383
384
385
386
387
388
389
390
391
392
393
394
395
396
397
398
399
400
401
402
403
404
405
406
407
408
409
410
411
412
413
414
415
416
417
418
419
420
421
422
423
424
425
426
427
428
429
430
431
432
433
434
435
436
437
438
439
440
441
442
443
444
445
446
447
448
449
450
451
452
453
454
455
456
457
458
459
460
461
462
463
464
465
466
467
468
469
470
471
472
473
474
475
476
477
478
479
480
481
482
483
484
485
486
487
488
489
490
491
492
493
494
495
496
497
498
499
500
501
502
503
504
505
506
507
508
509
510
511
512
513
514
515
516
517
518
519
520
521
522
523
524
525
526
527
528
529
530
531
532
533
534
535
536
537
538
539
540
541
542
543
544
545
546
547
548
549
550
551
552
553
554
555
556
557
558
559
560
561
562
563
564
565
566
567
568
569
570
571
572
573
574
575
576
577
578
579
580
581
582
583
584
585
586
587
588
589
590
591
592
593
594
595
596
597
598
599
600
601
602
603
604
605
606
607
608
609
610
611
612
613
614
615
616
617
618
619
620
621
622
623
624
625
626
627
628
629
630
631
632
633
634
635
636
637
638
639
640
641
642
643
644
645
646
647
648
649
650
651
652
653
654
655
656
657
658
659
660
661
662
663
664
665
666
667
668
669
670
671
672
673
674
675
676
677
678
679
680
681
682
683
684
685
686
687
688
689
690
691
692
693
694
695
696
697
698
699
700
701
702
703
704
705
706
707
708
709
710
711
712
713
714
715
716
717
718
719
720
721
722
723
724
725
726
727
728
729
730
731
732
733
734
735
736
737
738
739
740
741
742
743
744
745
746
747
748
749
750
751
752
753
754
755
756
757
758
759
760
761
762
763
764
765
766
767
768
769
770
771
772
773
774
775
776
777
778
779
780
781
782
783
784
785
786
787
788
789
790
791
792
793
794
795
796
797
798
799
800
801
802
803
804
805
806
807
808
809
810
811
812
813
814
815
816
817
818
819
820
821
822
823
824
825
826
827
828
829
830
831
832
833
834
835
836
837
838
839
840
841
842
843
844
845
846
847
848
849
850
851
852
853
854
855
856
857
858
859
860
861
862
863
864
865
866
867
868
869
870
871
872
873
874
875
876
877
878
879
    <DataArray type="Float64" Name="v" NumberOfComponents="3"/>
0 0 0
0 0 0
0 0 0
0 0 0
0 0 0
0 0 0
0 0 0
0 0 0
0 0 0
0 0 0
0 0 0
0 0 0
0 0 0
0 0 0
0 0 0
0 0 0
0 0 0
0 0 0
0 0 0
0 0 0
0 0 0
0 0 0
0 0 0
0 0 0
0 0 0
0 0 0
0 0 0
0 0 0
0 0 0
0 0 0
0 0 0
0 0 0
0 0 0
0 0 0
0 0 0
0 0 0
0 0 0
0 0 0
0 0 0
0 0 0
0 0 0
0 0 0
0 0 0
0 0 0
0 0 0
0 0 0
0 0 0
0 0 0
0 0 0
0 0 0
0 0 0
0 0 0
0 0 0
0 0 0
0 0 0
0 0 0
0 0 0
0 0 0
0 0 0
0 0 0
0 0 0
0 0 0
0 0 0
0 0 0
0 0 0
0 0 0
0 0 0
0 0 0
0 0 0
0 0 0
0 0 0
0 0 0
0 0 0
0 0 0
0 0 0
0 0 0
0 0 0
0 0 0
0 0 0
0 0 0
0 0 0
0 0 0
0 0 0
0 0 0
0 0 0
0 0 0
0 0 0
0 0 0
0 0 0
0 0 0
0 0 0
0 0 0
0 0 0
0 0 0
0 0 0
0 0 0
0 0 0
0 0 0
0 0 0
0 0 0
0 0 0
0 0 0
0 0 0
0 0 0
0 0 0
0 0 0
0 0 0
0 0 0
0 0 0
0 0 0
0 0 0
0 0 0
0 0 0
0 0 0
0 0 0
0 0 0
0 0 0
0 0 0
0 0 0
0 0 0
0 0 0
0 0 0
0 0 0
0 0 0
0 0 0
0 0 0
0 0 0
0 0 0
0 0 0
0 0 0
0 0 0
0 0 0
0 0 0
0 0 0
0 0 0
0 0 0
0 0 0
0 0 0
0 0 0
0 0 0
0 0 0
0 0 0
0 0 0
0 0 0
0 0 0
0 0 0
0 0 0
0 0 0
0 0 0
0 0 0
0 0 0
0 0 0
0 0 0
0 0 0
0 0 0
0 0 0
0 0 0
0 0 0
0 0 0
0 0 0
0 0 0
0 0 0
0 0 0
0 0 0
0 0 0
0 0 0
0 0 0
0 0 0
0 0 0
0 0 0
0 0 0
0 0 0
0 0 0
0 0 0
0 0 0
0 0 0
0 0 0
0 0 0
0 0 0
0 0 0
0 0 0
0 0 0
0 0 0
0 0 0
0 0 0
0 0 0
0 0 0
0 0 0
0 0 0
0 0 0
0 0 0
0 0 0
0 0 0
0 0 0
0 0 0
0 0 0
0 0 0
0 0 0
0 0 0
0 0 0
0 0 0
0 0 0
0 0 0
0 0 0
0 0 0
0 0 0
0 0 0
0 0 0
0 0 0
0 0 0
0 0 0
0 0 0
0 0 0
0 0 0
0 0 0
0 0 0
0 0 0
0 0 0
0 0 0
0 0 0
0 0 0
0 0 0
0 0 0
0 0 0
0 0 0
0 0 0
0 0 0
0 0 0
0 0 0
0 0 0
0 0 0
0 0 0
0 0 0
0 0 0
0 0 0
0 0 0
0 0 0
0 0 0
0 0 0
0 0 0
0 0 0
0 0 0
0 0 0
0 0 0
0 0 0
0 0 0
0 0 0
0 0 0
0 0 0
0 0 0
0 0 0
0 0 0
0 0 0
0 0 0
0 0 0
0 0 0
0 0 0
0 0 0
0 0 0
0 0 0
0 0 0
0 0 0
0 0 0
0 0 0
0 0 0
0 0 0
0 0 0
0 0 0
0 0 0
0 0 0
0 0 0
0 0 0
0 0 0
0 0 0
0 0 0
0 0 0
0 0 0
0 0 0
0 0 0
0 0 0
0 0 0
0 0 0
0 0 0
0 0 0
0 0 0
0 0 0
0 0 0
0 0 0
0 0 0
0 0 0
0 0 0
0 0 0
0 0 0
0 0 0
0 0 0
0 0 0
0 0 0
0 0 0
0 0 0
0 0 0
0 0 0
0 0 0
0 0 0
0 0 0
0 0 0
0 0 0
0 0 0
0 0 0
0 0 0
0 0 0
0 0 0
0 0 0
0 0 0
0 0 0
0 0 0
0 0 0
0 0 0
0 0 0
0 0 0
0 0 0
0 0 0
0 0 0
0 0 0
0 0 0
0 0 0
0 0 0
0 0 0
0 0 0
0 0 0
0 0 0
0 0 0
0 0 0
0 0 0
0 0 0
0 0 0
0 0 0
0 0 0
0 0 0
0 0 0
0 0 0
0 0 0
0 0 0
0 0 0
0 0 0
0 0 0
0 0 0
0 0 0
0 0 0
0 0 0
0 0 0
0 0 0
0 0 0
0 0 0
0 0 0
0 0 0
0 0 0
0 0 0
0 0 0
0 0 0
0 0 0
0 0 0
0 0 0
0 0 0
0 0 0
0 0 0
0 0 0
0 0 0
0 0 0
0 0 0
0 0 0
0 0 0
0 0 0
0 0 0
0 0 0
0 0 0
0 0 0
0 0 0
0 0 0
0 0 0
0 0 0
0 0 0
0 0 0
0 0 0
0 0 0
0 0 0
0 0 0
0 0 0
0 0 0
0 0 0
0 0 0
0 0 0
0 0 0
0 0 0
0 0 0
0 0 0
0 0 0
0 0 0
0 0 0
0 0 0
0 0 0
0 0 0
0 0 0
0 0 0
0 0 0
0 0 0
0 0 0
0 0 0
0 0 0
0 0 0
0 0 0
0 0 0
0 0 0
0 0 0
0 0 0
0 0 0
0 0 0
0 0 0
0 0 0
0 0 0
0 0 0
0 0 0
0 0 0
0 0 0
0 0 0
0 0 0
0 0 0
0 0 0
0 0 0
0 0 0
0 0 0
0 0 0
0 0 0
0 0 0
0 0 0
0 0 0
0 0 0
0 0 0
0 0 0
0 0 0
0 0 0
0 0 0
0 0 0
0 0 0
0 0 0
0 0 0
0 0 0
0 0 0
0 0 0
0 0 0
0 0 0
0 0 0
0 0 0
0 0 0
0 0 0
0 0 0
0 0 0
0 0 0
0 0 0
0 0 0
0 0 0
0 0 0
0 0 0
0 0 0
0 0 0
0 0 0
0 0 0
0 0 0
0 0 0
0 0 0
0 0 0
0 0 0
0 0 0
0 0 0
0 0 0
0 0 0
0 0 0
0 0 0
0 0 0
0 0 0
0 0 0
0 0 0
0 0 0
0 0 0
0 0 0
0 0 0
0 0 0
0 0 0
0 0 0
0 0 0
0 0 0
0 0 0
0 0 0
0 0 0
0 0 0
0 0 0
0 0 0
0 0 0
0 0 0
0 0 0
0 0 0
0 0 0
0 0 0
0 0 0
0 0 0
0 0 0
0 0 0
0 0 0
0 0 0
0 0 0
0 0 0
0 0 0
0 0 0
0 0 0
0 0 0
0 0 0
0 0 0
0 0 0
0 0 0
0 0 0
0 0 0
0 0 0
0 0 0
0 0 0
0 0 0
0 0 0
0 0 0
0 0 0
0 0 0
0 0 0
0 0 0
0 0 0
0 0 0
0 0 0
0 0 0
0 0 0
0 0 0
0 0 0
0 0 0
0 0 0
0 0 0
0 0 0
0 0 0
0 0 0
0 0 0
0 0 0
0 0 0
0 0 0
0 0 0
0 0 0
0 0 0
0 0 0
0 0 0
0 0 0
0 0 0
0 0 0
0 0 0
0 0 0
0 0 0
0 0 0
0 0 0
0 0 0
0 0 0
0 0 0
0 0 0
0 0 0
0 0 0
0 0 0
0 0 0
0 0 0
0 0 0
0 0 0
0 0 0
0 0 0
0 0 0
0 0 0
0 0 0
0 0 0
0 0 0
0 0 0
0 0 0
0 0 0
0 0 0
0 0 0
0 0 0
0 0 0
0 0 0
0 0 0
0 0 0
0 0 0
0 0 0
0 0 0
0 0 0
0 0 0
0 0 0
0 0 0
0 0 0
0 0 0
0 0 0
0 0 0
0 0 0
0 0 0
0 0 0
0 0 0
0 0 0
0 0 0
0 0 0
0 0 0
0 0 0
0 0 0
0 0 0
0 0 0
0 0 0
0 0 0
0 0 0
0 0 0
0 0 0
0 0 0
0 0 0
0 0 0
0 0 0
0 0 0
0 0 0
0 0 0
0 0 0
0 0 0
0 0 0
0 0 0
0 0 0
0 0 0
0 0 0
0 0 0
0 0 0
0 0 0
0 0 0
0 0 0
0 0 0
0 0 0
0 0 0
0 0 0
0 0 0
0 0 0
0 0 0
0 0 0
0 0 0
0 0 0
0 0 0
0 0 0
0 0 0
0 0 0
0 0 0
0 0 0
0 0 0
0 0 0
0 0 0
0 0 0
0 0 0
0 0 0
0 0 0
0 0 0
0 0 0
0 0 0
0 0 0
0 0 0
0 0 0
0 0 0
0 0 0
0 0 0
0 0 0
0 0 0
0 0 0
0 0 0
0 0 0
0 0 0
0 0 0
0 0 0
0 0 0
0 0 0
0 0 0
0 0 0
0 0 0
0 0 0
0 0 0
0 0 0
0 0 0
0 0 0
0 0 0
0 0 0
0 0 0
0 0 0
0 0 0
0 0 0
0 0 0
0 0 0
0 0 0
0 0 0
0 0 0
0 0 0
0 0 0
0 0 0
0 0 0
0 0 0
0 0 0
0 0 0
0 0 0
0 0 0
0 0 0
0 0 0
0 0 0
0 0 0
0 0 0
0 0 0
0 0 0
0 0 0
0 0 0
0 0 0
0 0 0
0 0 0
0 0 0
0 0 0
0 0 0
0 0 0
0 0 0
0 0 0
0 0 0
0 0 0
0 0 0
0 0 0
0 0 0
0 0 0
0 0 0
0 0 0
0 0 0
0 0 0
0 0 0
0 0 0
0 0 0
0 0 0
0 0 0
0 0 0
0 0 0
0 0 0
0 0 0
0 0 0
0 0 0
0 0 0
0 0 0
0 0 0
0 0 0
0 0 0
0 0 0
0 0 0
0 0 0
0 0 0
0 0 0
0 0 0
0 0 0
0 0 0
0 0 0
0 0 0
0 0 0
0 0 0
0 0 0
0 0 0
0 0 0
0 0 0
0 0 0
0 0 0
0 0 0
0 0 0
0 0 0
0 0 0
0 0 0
0 0 0
0 0 0
0 0 0
0 0 0
0 0 0
0 0 0
0 0 0
0 0 0
0 0 0
0 0 0
0 0 0
0 0 0
0 0 0
0 0 0
0 0 0
0 0 0
0 0 0
0 0 0
0 0 0
0 0 0
0 0 0
0 0 0
0 0 0
0 0 0
0 0 0
0 0 0
0 0 0
0 0 0
0 0 0
0 0 0
0 0 0
0 0 0
0 0 0
0 0 0
0 0 0
0 0 0
0 0 0
0 0 0
0 0 0
0 0 0
0 0 0
0 0 0
0 0 0
0 0 0
0 0 0
0 0 0
0 0 0
0 0 0
0 0 0
0 0 0
0 0 0
0 0 0
0 0 0
0 0 0
0 0 0
0 0 0
0 0 0
0 0 0
0 0 0
0 0 0
0 0 0
0 0 0
0 0 0
0 0 0
0 0 0
0 0 0
0 0 0
0 0 0
0 0 0
0 0 0
0 0 0
0 0 0
0 0 0
0 0 0
0 0 0
0 0 0
0 0 0
0 0 0
0 0 0
0 0 0
0 0 0
0 0 0
0 0 0
0 0 0
0 0 0
0 0 0
0 0 0
0 0 0
0 0 0
0 0 0
0 0 0
0 0 0
0 0 0
0 0 0
0 0 0
0 0 0
0 0 0
0 0 0
0 0 0
0 0 0
0 0 0
0 0 0
0 0 0
0 0 0
0 0 0
0 0 0
0 0 0
0 0 0
    <DataArray type="Float64" Name="Force" NumberOfComponents="3"/>
0 0 0
0 0 0
0 0 0
0 0 0
0 0 0
0 0 0
0 0 0
0 0 0
0 0 0
0 0 0
0 0 0
0 0 0
0 0 0
0 0 0
0 0 0
0 0 0
0 0 0
0 0 0
0 0 0
0 0 0
0 0 0
0 0 0
0 0 0
0 0 0
0 0 0
0 0 0
0 0 0
0 0 0
0 0 0
0 0 0
0 0 0
0 0 0
0 0 0
0 0 0
0 0 0
0 0 0
0 0 0
0 0 0
0 0 0
-1097.15 119.06 -1432.45
0 0 0
-25.387 53.6334 -12.9005
0 0 0
0 0 0
0 0 0
-63.7126 75.3891 -57.6777
0 0 0
-73.3774 92.2527 -75.7457
0 0 0
0 0 0
0 0 0
0 0 0
0 0 0
0 0 0
-63.9161 10.2909 -11.7392
0 0 0
-67.6886 27.8615 -4.97461
0 0 0
-411.081 239.446 -118.357
0 0 0
-123.182 71.8102 -36.6583
0 0 0
0 0 0
0 0 0
-36.3451 12.7356 -11.1745
0 0 0
-36.2825 16.9364 -6.15774
0 0 0
0 0 0
0 0 0
-32.9569 73.7716 -13.564
0 0 0
0 0 0
0 0 0
0 0 0
0 0 0
0 0 0
0 0 0
0 0 0
0 0 0
0 0 0
-1263.82 628.117 -513.152
0 0 0
0 0 0
0 0 0
0 0 0
0 0 0
0 0 0
0 0 0
0 0 0
-217.098 -51.6413 32.3585
0 0 0
0 0 0
0 0 0
0 0 0
0 0 0
0 0 0
0 0 0
0 0 0
0 0 0
-80.9934 30.8642 25.2022
0 0 0
-21.4583 12.5526 6.42113
0 0 0
-35.7029 16.0454 3.83688
0 0 0
0 0 0
0 0 0
-70.7898 133.507 26.8397
0 0 0
0 0 0
0 0 0
0 0 0
0 0 0
0 0 0
-1280.61 2151.06 -2813.41
0 0 0
0 0 0
0 0 0
0 0 0
0 0 0
0 0 0
-5.79889 6.57041 -4.2796
0 0 0
-58.0719 38.97 -2.72058
0 0 0
0 0 0
-3270.91 3696.8 -3278.32
0 0 0
0 0 0
0 0 0
0 0 0
0 0 0
-69.3156 92.94 -32.8263
0 0 0
-22.671 15.3946 -2.53702
0 0 0
0 0 0
0 0 0
0 0 0
0 0 0
0 0 0
0 0 0
0 0 0
-33.8224 23.9602 -10.7095
0 0 0
0 0 0
0 0 0
0 0 0
0 0 0
0 0 0
0 0 0
0 0 0
0 0 0
0 0 0
-1141.11 -2.40082 -257.061
0 0 0
0 0 0
0 0 0
0 0 0
0 0 0
0 0 0
0 0 0
0 0 0
0 0 0
0 0 0
0 0 0
0 0 0
0 0 0
-93.4013 185.44 45.6287
0 0 0
0 0 0
0 0 0
-23.2739 18.2885 11.8568
0 0 0
-158.022 118.25 51.432
0 0 0
-673.98 352.238 133.604
0 0 0
0 0 0
-193.435 232.382 79.1562
0 0 0
-55.4461 39.2787 17.5375
0 0 0
0 0 0
0 0 0
0 0 0
0 0 0
0 0 0
0 0 0
0 0 0
0 0 0
0 0 0
0 0 0
0 0 0
0 0 0
0 0 0
0 0 0
-235.492 906.324 -301.979
-1330.18 1579.35 104.083
-380.305 1166.46 86.2879
0 0 0
-2741.16 2908 -261.821
0 0 0
0 0 0
0 0 0
-92.5838 230.865 26.1641
0 0 0
0 0 0
0 0 0
0 0 0
0 0 0
0 0 0
0 0 0
0 0 0
0 0 0
0 0 0
0 0 0
0 0 0
0 0 0
-66.6271 -0.700913 -10.6459
0 0 0
0 0 0
0 0 0
0 0 0
0 0 0
0 0 0
0 0 0
0 0 0
-88.8524 45.8977 -19.4937
0 0 0
0 0 0
0 0 0
0 0 0
-4533.83 3967.96 -3271.14
0 0 0
0 0 0
-1041.19 972.176 926.709
-223.116 749.497 504.053
0 0 0
0 0 0
0 0 0
-2102.7 534.515 619.888
0 0 0
0 0 0
0 0 0
27.3654 320.35 88.4365
0 0 0
-255.268 265.068 32.1106
0 0 0
-158.472 214.081 82.2643
0 0 0
-496.889 19.7583 77.5501
0 0 0
0 0 0
0 0 0
-75.575 111.962 26.3192
0 0 0
0 0 0
0 0 0
0 0 0
0 0 0
0 0 0
0 0 0
0 0 0
0 0 0
0 0 0
0 0 0
0 0 0
0 0 0
0 0 0
0 0 0
0 0 0
0 0 0
0 0 0
-441.604 2995.96 988.692
0 0 0
0 0 0
-317.049 172.917 -75.0265
0 0 0
0 0 0
0 0 0
-275.35 117.255 -61.3446
0 0 0
-27.9179 25.172 -8.13056
0 0 0
0 0 0
0 0 0
0 0 0
0 0 0
-38.4241 3.946 -7.44764
0 0 0
0 0 0
0 0 0
0 0 0
0 0 0
0 0 0
-28.0059 12.6361 -10.1786
0 0 0
0 0 0
0 0 0
0 0 0
0 0 0
0 0 0
0 0 0
0 0 0
0 0 0
0 0 0
0 0 0
0 0 0
0 0 0
0 0 0
0 0 0
0 0 0
0 0 0
0 0 0
-307.147 166.318 70.9824
0 0 0
-252.242 210.492 23.0845
0 0 0
0 0 0
0 0 0
-30.7962 11.0863 -0.0164265
0 0 0
0 0 0
-227.781 390.603 112.174
-497.76 289.229 126.229
-265.141 456.648 115.771
-38.3527 8.36809 7.60681
0 0 0
0 0 0
-366.128 359.217 3.63087
0 0 0
-83.7773 48.2025 20.9045
0 0 0
-24.1313 13.442 4.59645
0 0 0
0 0 0
0 0 0
0 0 0
0 0 0
0 0 0
0 0 0
0 0 0
0 0 0
0 0 0
0 0 0
0 0 0
0 0 0
0 0 0
0 0 0
0 0 0
0 0 0
0 0 0
0 0 0
0 0 0
0 0 0
0 0 0
0 0 0
0 0 0
0 0 0
0 0 0
0 0 0
0 0 0
0 0 0
0 0 0
0 0 0
0 0 0
0 0 0
0 0 0
0 0 0
0 0 0
0 0 0
0 0 0
0 0 0
0 0 0
0 0 0
0 0 0
0 0 0
0 0 0
0 0 0
0 0 0
0 0 0
0 0 0
0 0 0
0 0 0
0 0 0
0 0 0
0 0 0
0 0 0
0 0 0
0 0 0
0 0 0
0 0 0
0 0 0
0 0 0
0 0 0
0 0 0
0 0 0
0 0 0
0 0 0
0 0 0
0 0 0
0 0 0
0 0 0
0 0 0
0 0 0
0 0 0
0 0 0
0 0 0
0 0 0
0 0 0
0 0 0
0 0 0
0 0 0
0 0 0
0 0 0
0 0 0
0 0 0
0 0 0
0 0 0
0 0 0
0 0 0
0 0 0
0 0 0
0 0 0
0 0 0
0 0 0
0 0 0
0 0 0
0 0 0
0 0 0
0 0 0
0 0 0
0 0 0
0 0 0
0 0 0
0 0 0
0 0 0
0 0 0
0 0 0
0 0 0
0 0 0
0 0 0
0 0 0
0 0 0
0 0 0
0 0 0
0 0 0
0 0 0
0 0 0
0 0 0
0 0 0
0 0 0
0 0 0
0 0 0
0 0 0
-156.689 -150.448 -8.32445
0 0 0
-63.6894 -28.1753 -15.7902
0 0 0
-73.3471 -57.078 -63.0588
0 0 0
0 0 0
0 0 0
0 0 0
0 0 0
0 0 0
-51.1676 -12.8208 -3.1172
0 0 0
0 0 0
0 0 0
0 0 0
-180.484 -154.464 -12.7345
0 0 0
0 0 0
-0.636676 -1.40757 -0.0291098
0 0 0
-80.5238 -139.945 -35.2685
0 0 0
-278.583 -44.1556 -25.4444
0 0 0
0 0 0
0 0 0
-70.4514 21.419 -22.4264
0 0 0
-41.8359 4.64524 -7.38462
0 0 0
0 0 0
0 0 0
0 0 0
0 0 0
0 0 0
0 0 0
0 0 0
0 0 0
0 0 0
0 0 0
0 0 0
0 0 0
0 0 0
0 0 0
0 0 0
0 0 0
-97.6727 -59.3382 23.9716
0 0 0
0 0 0
0 0 0
0 0 0
0 0 0
0 0 0
0 0 0
0 0 0
0 0 0
0 0 0
0 0 0
0 0 0
0 0 0
0 0 0
0 0 0
-65.5127 -40.4023 19.7605
0 0 0
-21.1779 -13.0676 6.42937
0 0 0
-47.3692 6.17743 8.59044
0 0 0
0 0 0
0 0 0
0 0 0
0 0 0
0 0 0
0 0 0
0 0 0
0 0 0
0 0 0
0 0 0
0 0 0
-349.716 -277.534 -227.466
0 0 0
0 0 0
-791.559 -472.293 81.3381
0 0 0
0 0 0
0 0 0
-793.572 -603.029 -289.732
0 0 0
-96.2973 -41.8037 -15.7857
0 0 0
0 0 0
0 0 0
0 0 0
-872.239 -515.594 -158.471
-14.5348 -89.3238 -28.4175
0 0 0
0 0 0
-593.405 -587.464 41.182
0 0 0
-345.865 -206.753 -102.461
0 0 0
-82.344 -22.7362 -20.3705
0 0 0
0 0 0
0 0 0
0 0 0
0 0 0
0 0 0
0 0 0
0 0 0
0 0 0
0 0 0
0 0 0
0 0 0
0 0 0
0 0 0
0 0 0
0 0 0
-2577.79 -4450.69 -2870.21
-123.981 -1003.53 -180.749
0 0 0
0 0 0
0 0 0
0 0 0
0 0 0
0 0 0
0 0 0
0 0 0
0 0 0
-490.609 -290.914 164.545
0 0 0
0 0 0
0 0 0
0 0 0
0 0 0
0 0 0
0 0 0
0 0 0
0 0 0
0 0 0
0 0 0
-159.693 -60.4021 53.8473
0 0 0
-46.1522 -167.569 54.0144
0 0 0
0 0 0
0 0 0
0 0 0
0 0 0
0 0 0
0 0 0
-4852.14 -2999.91 -1880.09
0 0 0
0 0 0
0 0 0
0 0 0
0 0 0
0 0 0
-37.1536 -10.6894 -10.6058
0 0 0
0 0 0
0 0 0
0 0 0
-1513.3 -2317.79 -382.548
0 0 0
-128.101 -187.852 27.5178
0 0 0
0 0 0
0 0 0
-120.49 -134.438 -25.2804
0 0 0
0 0 0
-183.773 -99.2848 -11.0683
0 0 0
-27.7625 -9.32188 -6.43077
0 0 0
-265.501 -103.622 12.9659
0 0 0
-114.359 -61.4768 6.56248
0 0 0
-70.402 -20.0151 -26.9898
0 0 0
0 0 0
0 0 0
0 0 0
0 0 0
0 0 0
0 0 0
0 0 0
-4275.04 -2222.49 732.068
0 0 0
0 0 0
-345.269 -998.211 235.773
0 0 0
0 0 0
0 0 0
-35.3601 -9.51535 10.1926
0 0 0
-68.2353 -20.8931 5.88588
0 0 0
0 0 0
0 0 0
0 0 0
-666.869 -1064.42 318.292
0 0 0
0 0 0
0 0 0
0 0 0
0 0 0
0 0 0
0 0 0
0 0 0
-48.7887 -42.2325 16.6508
0 0 0
0 0 0
0 0 0
0 0 0
0 0 0
-59.1383 -31.7195 6.31102
0 0 0
0 0 0
0 0 0
0 0 0
0 0 0
0 0 0
0 0 0
0 0 0
0 0 0
-44.1037 -29.5251 8.88562
0 0 0
0 0 0
0 0 0
0 0 0
-420.379 -302.478 -128.724
0 0 0
-341.579 -503.258 -147.841
0 0 0
0 0 0
0 0 0
0 0 0
0 0 0
0 0 0
0 0 0
0 0 0
0 0 0
0 0 0
-472.38 -1155.87 -369.085
0 0 0
-10.7812 -21.9768 -3.62188
0 0 0
0 0 0
0 0 0
-326.374 -320.551 -36.1978
0 0 0
0 0 0
0 0 0
0 0 0
0 0 0
-19.1676 -46.5952 -9.83704
0 0 0
0 0 0
0 0 0
0 0 0
0 0 0
0 0 0
0 0 0
-16.6324 -10.7385 5.11523
0 0 0
0 0 0
-340.834 -529.936 118.616
0 0 0
0 0 0
0 0 0
-877.329 -1666.14 350.071
0 0 0
-157.197 -64.1526 14.001
0 0 0
0 0 0
-98.8159 -61.0186 28.1613
0 0 0
-569.341 -374.888 23.1353
0 0 0
0 0 0
0 0 0
-171.224 -340.705 53.4852
0 0 0
0 0 0
0 0 0
-38.2756 -81.8851 21.295
0 0 0
0 0 0
0 0 0
0 0 0
0 0 0
-92.9086 -229.904 62.7452
0 0 0
-14.0019 -14.3363 5.17744
0 0 0
0 0 0
0 0 0
0 0 0
0 0 0
0 0 0
0 0 0
0 0 0
0 0 0
0 0 0
0 0 0
0 0 0
0 0 0
0 0 0
0 0 0
0 0 0
0 0 0
0 0 0
0 0 0
0 0 0
0 0 0
0 0 0
0 0 0
0 0 0
0 0 0
0 0 0
0 0 0
0 0 0
0 0 0
0 0 0
0 0 0
0 0 0
0 0 0
0 0 0
0 0 0
0 0 0
0 0 0
0 0 0
0 0 0
0 0 0
0 0 0
0 0 0
0 0 0
0 0 0
0 0 0
0 0 0
0 0 0
0 0 0
0 0 0
0 0 0
0 0 0
0 0 0
0 0 0
0 0 0
0 0 0
0 0 0
0 0 0
0 0 0
0 0 0
0 0 0
0 0 0
0 0 0
0 0 0
0 0 0
0 0 0
0 0 0
0 0 0
0 0 0
0 0 0
0 0 0
0 0 0
0 0 0
0 0 0
0 0 0
0 0 0
0 0 0
0 0 0
0 0 0
0 0 0
0 0 0
0 0 0
0 0 0
0 0 0
0 0 0
0 0 0
0 0 0
-305.359 -139.443 -38.2504
0 0 0
0 0 0
0 0 0
0 0 0
0 0 0
0 0 0
-656.859 265.321 -11.8821
0 0 0
0 0 0
-671.797 115.373 -326.491
0 0 0
0 0 0
0 0 0
0 0 0
-1988.81 1097.19 -442.445
0 0 0
-1183.99 -439.885 -768.624
0 0 0
-844.606 475.161 267.232
0 0 0
0 0 0
0 0 0
0 0 0
0 0 0
0 0 0
-948.001 366.71 -118.332
-124.439 13.3263 7.99434
0 0 0
0 0 0
-762.708 351.415 124.23
0 0 0
0 0 0
0 0 0
0 0 0
0 0 0
0 0 0
0 0 0
0 0 0
   </PointData>
   <CellData>
   </CellData>
   <Points>
    <DataArray type="Float64" Name="Points" NumberOfComponents="3"/>
4 3.25 0
4.07071 3.32071 0
4.14142 3.39142 0
4.21213 3.46213 0
4.28284 3.53284 0
4.35355 3.60355 0
4.42426 3.67426 0
4.49498 3.74498 0
4.56569 3.81569 0
4.6364 3.8864 0
4.70711 3.95711 0
4.77782 4.02782 0
4.84853 4.09853 0
4.91924 4.16924 0
4.98995 4.23995 0
5.06066 4.31066 0
5.13137 4.38137 0
5.20208 4.45208 0
5.27279 4.52279 0
5.3435 4.5935 0
5.41421 4.66421 0
5.48492 4.73492 0
5.55563 4.80563 0
5.62635 4.87635 0
5.69706 4.94706 0
5.76777 5.01777 0
5.83848 5.08848 0
5.90919 5.15919 0
5.9799 5.2299 0
6.05061 5.30061 0
6.12132 5.37132 0
6.19203 5.44203 0
6.26274 5.51274 0
6.33345 5.58345 0
6.40416 5.65416 0
6.47487 5.72487 0
6.54558 5.79558 0
6.6163 5.8663 0
4 3.25 0.1
4.07071 3.32071 0.1
4.14142 3.39142 0.1
4.21213 3.46213 0.1
4.28284 3.53284 0.1
4.35355 3.60355 0.1
4.42426 3.67426 0.1
4.49498 3.74498 0.1
4.56569 3.81569 0.1
4.6364 3.8864 0.1
4.70711 3.95711 0.1
4.77782 4.02782 0.1
4.84853 4.09853 0.1
4.91924 4.16924 0.1
4.98995 4.23995 0.1
5.06066 4.31066 0.1
5.13137 4.38137 0.1
5.20208 4.45208 0.1
5.27279 4.52279 0.1
5.3435 4.5935 0.1
5.41421 4.66421 0.1
5.48492 4.73492 0.1
5.55563 4.80563 0.1
5.62635 4.87635 0.1
5.69706 4.94706 0.1
5.76777 5.01777 0.1
5.83848 5.08848 0.1
5.90919 5.15919 0.1
5.9799 5.2299 0.1
6.05061 5.30061 0.1
6.12132 5.37132 0.1
6.19203 5.44203 0.1
6.26274 5.51274 0.1
6.33345 5.58345 0.1
6.40416 5.65416 0.1
6.47487 5.72487 0.1
6.54558 5.79558 0.1
6.6163 5.8663 0.1
4 3.25 0.2
4.07071 3.32071 0.2
4.14142 3.39142 0.2
4.21213 3.46213 0.2
4.28284 3.53284 0.2
4.35355 3.60355 0.2
4.42426 3.67426 0.2
4.49498 3.74498 0.2
4.56569 3.81569 0.2
4.6364 3.8864 0.2
4.70711 3.95711 0.2
4.77782 4.02782 0.2
4.84853 4.09853 0.2
4.91924 4.16924 0.2
4.98995 4.23995 0.2
5.06066 4.31066 0.2
5.13137 4.38137 0.2
5.20208 4.45208 0.2
5.27279 4.52279 0.2
5.3435 4.5935 0.2
5.41421 4.66421 0.2
5.48492 4.73492 0.2
5.55563 4.80563 0.2
5.62635 4.87635 0.2
5.69706 4.94706 0.2
5.76777 5.01777 0.2
5.83848 5.08848 0.2
5.90919 5.15919 0.2
5.9799 5.2299 0.2
6.05061 5.30061 0.2
6.12132 5.37132 0.2
6.19203 5.44203 0.2
6.26274 5.51274 0.2
6.33345 5.58345 0.2
6.40416 5.65416 0.2
6.47487 5.72487 0.2
6.54558 5.79558 0.2
6.6163 5.8663 0.2
4 3.25 0.3
4.07071 3.32071 0.3
4.14142 3.39142 0.3
4.21213 3.46213 0.3
4.28284 3.53284 0.3
4.35355 3.60355 0.3
4.42426 3.67426 0.3
4.49498 3.74498 0.3
4.56569 3.81569 0.3
4.6364 3.8864 0.3
4.70711 3.95711 0.3
4.77782 4.02782 0.3
4.84853 4.09853 0.3
4.91924 4.16924 0.3
4.98995 4.23995 0.3
5.06066 4.31066 0.3
5.13137 4.38137 0.3
5.20208 4.45208 0.3
5.27279 4.52279 0.3
5.3435 4.5935 0.3
5.41421 4.66421 0.3
5.48492 4.73492 0.3
5.55563 4.80563 0.3
5.62635 4.87635 0.3
5.69706 4.94706 0.3
5.76777 5.01777 0.3
5.83848 5.08848 0.3
5.90919 5.15919 0.3
5.9799 5.2299 0.3
6.05061 5.30061 0.3
6.12132 5.37132 0.3
6.19203 5.44203 0.3
6.26274 5.51274 0.3
6.33345 5.58345 0.3
6.40416 5.65416 0.3
6.47487 5.72487 0.3
6.54558 5.79558 0.3
6.6163 5.8663 0.3
4 3.25 0.4
4.07071 3.32071 0.4
4.14142 3.39142 0.4
4.21213 3.46213 0.4
4.28284 3.53284 0.4
4.35355 3.60355 0.4
4.42426 3.67426 0.4
4.49498 3.74498 0.4
4.56569 3.81569 0.4
4.6364 3.8864 0.4
4.70711 3.95711 0.4
4.77782 4.02782 0.4
4.84853 4.09853 0.4
4.91924 4.16924 0.4
4.98995 4.23995 0.4
5.06066 4.31066 0.4
5.13137 4.38137 0.4
5.20208 4.45208 0.4
5.27279 4.52279 0.4
5.3435 4.5935 0.4
5.41421 4.66421 0.4
5.48492 4.73492 0.4
5.55563 4.80563 0.4
5.62635 4.87635 0.4
5.69706 4.94706 0.4
5.76777 5.01777 0.4
5.83848 5.08848 0.4
5.90919 5.15919 0.4
5.9799 5.2299 0.4
6.05061 5.30061 0.4
6.12132 5.37132 0.4
6.19203 5.44203 0.4
6.26274 5.51274 0.4
6.33345 5.58345 0.4
6.40416 5.65416 0.4
6.47487 5.72487 0.4
6.54558 5.79558 0.4
6.6163 5.8663 0.4
4 3.25 0.5
4.07071 3.32071 0.5
4.14142 3.39142 0.5
4.21213 3.46213 0.5
4.28284 3.53284 0.5
4.35355 3.60355 0.5
4.42426 3.67426 0.5
4.49498 3.74498 0.5
4.56569 3.81569 0.5
4.6364 3.8864 0.5
4.70711 3.95711 0.5
4.77782 4.02782 0.5
4.84853 4.09853 0.5
4.91924 4.16924 0.5
4.98995 4.23995 0.5
5.06066 4.31066 0.5
5.13137 4.38137 0.5
5.20208 4.45208 0.5
5.27279 4.52279 0.5
5.3435 4.5935 0.5
5.41421 4.66421 0.5
5.48492 4.73492 0.5
5.55563 4.80563 0.5
5.62635 4.87635 0.5
5.69706 4.94706 0.5
5.76777 5.01777 0.5
5.83848 5.08848 0.5
5.90919 5.15919 0.5
5.9799 5.2299 0.5
6.05061 5.30061 0.5
6.12132 5.37132 0.5
6.19203 5.44203 0.5
6.26274 5.51274 0.5
6.33345 5.58345 0.5
6.40416 5.65416 0.5
6.47487 5.72487 0.5
6.54558 5.79558 0.5
6.6163 5.8663 0.5
4 3.25 0.6
4.07071 3.32071 0.6
4.14142 3.39142 0.6
4.21213 3.46213 0.6
4.28284 3.53284 0.6
4.35355 3.60355 0.6
4.42426 3.67426 0.6
4.49498 3.74498 0.6
4.56569 3.81569 0.6
4.6364 3.8864 0.6
4.70711 3.95711 0.6
4.77782 4.02782 0.6
4.84853 4.09853 0.6
4.91924 4.16924 0.6
4.98995 4.23995 0.6
5.06066 4.31066 0.6
5.13137 4.38137 0.6
5.20208 4.45208 0.6
5.27279 4.52279 0.6
5.3435 4.5935 0.6
5.41421 4.66421 0.6
5.48492 4.73492 0.6
5.55563 4.80563 0.6
5.62635 4.87635 0.6
5.69706 4.94706 0.6
5.76777 5.01777 0.6
5.83848 5.08848 0.6
5.90919 5.15919 0.6
5.9799 5.2299 0.6
6.05061 5.30061 0.6
6.12132 5.37132 0.6
6.19203 5.44203 0.6
6.26274 5.51274 0.6
6.33345 5.58345 0.6
6.40416 5.65416 0.6
6.47487 5.72487 0.6
6.54558 5.79558 0.6
6.6163 5.8663 0.6
4 3.25 0.7
4.07071 3.32071 0.7
4.14142 3.39142 0.7
4.21213 3.46213 0.7
4.28284 3.53284 0.7
4.35355 3.60355 0.7
4.42426 3.67426 0.7
4.49498 3.74498 0.7
4.56569 3.81569 0.7
4.6364 3.8864 0.7
4.70711 3.95711 0.7
4.77782 4.02782 0.7
4.84853 4.09853 0.7
4.91924 4.16924 0.7
4.98995 4.23995 0.7
5.06066 4.31066 0.7
5.13137 4.38137 0.7
5.20208 4.45208 0.7
5.27279 4.52279 0.7
5.3435 4.5935 0.7
5.41421 4.66421 0.7
5.48492 4.73492 0.7
5.55563 4.80563 0.7
5.62635 4.87635 0.7
5.69706 4.94706 0.7
5.76777 5.01777 0.7
5.83848 5.08848 0.7
5.90919 5.15919 0.7
5.9799 5.2299 0.7
6.05061 5.30061 0.7
6.12132 5.37132 0.7
6.19203 5.44203 0.7
6.26274 5.51274 0.7
6.33345 5.58345 0.7
6.40416 5.65416 0.7
6.47487 5.72487 0.7
6.54558 5.79558 0.7
6.6163 5.8663 0.7
4 3.25 0.8
4.07071 3.32071 0.8
4.14142 3.39142 0.8
4.21213 3.46213 0.8
4.28284 3.53284 0.8
4.35355 3.60355 0.8
4.42426 3.67426 0.8
4.49498 3.74498 0.8
4.56569 3.81569 0.8
4.6364 3.8864 0.8
4.70711 3.95711 0.8
4.77782 4.02782 0.8
4.84853 4.09853 0.8
4.91924 4.16924 0.8
4.98995 4.23995 0.8
5.06066 4.31066 0.8
5.13137 4.38137 0.8
5.20208 4.45208 0.8
5.27279 4.52279 0.8
5.3435 4.5935 0.8
5.41421 4.66421 0.8
5.48492 4.73492 0.8
5.55563 4.80563 0.8
5.62635 4.87635 0.8
5.69706 4.94706 0.8
5.76777 5.01777 0.8
5.83848 5.08848 0.8
5.90919 5.15919 0.8
5.9799 5.2299 0.8
6.05061 5.30061 0.8
6.12132 5.37132 0.8
6.19203 5.44203 0.8
6.26274 5.51274 0.8
6.33345 5.58345 0.8
6.40416 5.65416 0.8
6.47487 5.72487 0.8
6.54558 5.79558 0.8
6.6163 5.8663 0.8
4 3.25 0.9
4.07071 3.32071 0.9
4.14142 3.39142 0.9
4.21213 3.46213 0.9
4.28284 3.53284 0.9
4.35355 3.60355 0.9
4.42426 3.67426 0.9
4.49498 3.74498 0.9
4.56569 3.81569 0.9
4.6364 3.8864 0.9
4.70711 3.95711 0.9
4.77782 4.02782 0.9
4.84853 4.09853 0.9
4.91924 4.16924 0.9
4.98995 4.23995 0.9
5.06066 4.31066 0.9
5.13137 4.38137 0.9
5.20208 4.45208 0.9
5.27279 4.52279 0.9
5.3435 4.5935 0.9
5.41421 4.66421 0.9
5.48492 4.73492 0.9
5.55563 4.80563 0.9
5.62635 4.87635 0.9
5.69706 4.94706 0.9
5.76777 5.01777 0.9
5.83848 5.08848 0.9
5.90919 5.15919 0.9
5.9799 5.2299 0.9
6.05061 5.30061 0.9
6.12132 5.37132 0.9
6.19203 5.44203 0.9
6.26274 5.51274 0.9
6.33345 5.58345 0.9
6.40416 5.65416 0.9
6.47487 5.72487 0.9
6.54558 5.79558 0.9
6.6163 5.8663 0.9
4 3.25 1
4.07071 3.32071 1
4.14142 3.39142 1
4.21213 3.46213 1
4.28284 3.53284 1
4.35355 3.60355 1
4.42426 3.67426 1
4.49498 3.74498 1
4.56569 3.81569 1
4.6364 3.8864 1
4.70711 3.95711 1
4.77782 4.02782 1
4.84853 4.09853 1
4.91924 4.16924 1
4.98995 4.23995 1
5.06066 4.31066 1
5.13137 4.38137 1
5.20208 4.45208 1
5.27279 4.52279 1
5.3435 4.5935 1
5.41421 4.66421 1
5.48492 4.73492 1
5.55563 4.80563 1
5.62635 4.87635 1
5.69706 4.94706 1
5.76777 5.01777 1
5.83848 5.08848 1
5.90919 5.15919 1
5.9799 5.2299 1
6.05061 5.30061 1
6.12132 5.37132 1
6.19203 5.44203 1
6.26274 5.51274 1
6.33345 5.58345 1
6.40416 5.65416 1
6.47487 5.72487 1
6.54558 5.79558 1
6.6163 5.8663 1
4 2.75 0
4.07071 2.67929 0
4.14142 2.60858 0
4.21213 2.53787 0
4.28284 2.46716 0
4.35355 2.39645 0
4.42426 2.32574 0
4.49498 2.25502 0
4.56569 2.18431 0
4.6364 2.1136 0
4.70711 2.04289 0
4.77782 1.97218 0
4.84853 1.90147 0
4.91924 1.83076 0
4.98995 1.76005 0
5.06066 1.68934 0
5.13137 1.61863 0
5.20208 1.54792 0
5.27279 1.47721 0
5.3435 1.4065 0
5.41421 1.33579 0
5.48492 1.26508 0
5.55563 1.19436 0
5.62635 1.12365 0
5.69706 1.05294 0
5.76777 0.982233 0
5.83848 0.911522 0
5.90919 0.840812 0
5.9799 0.770101 0
6.05061 0.69939 0
6.12132 0.62868 0
6.19203 0.557969 0
6.26274 0.487258 0
6.33345 0.416548 0
6.40416 0.345837 0
6.47487 0.275126 0
6.54558 0.204416 0
6.6163 0.133705 0
4 2.75 0.1
4.07071 2.67929 0.1
4.14142 2.60858 0.1
4.21213 2.53787 0.1
4.28284 2.46716 0.1
4.35355 2.39645 0.1
4.42426 2.32574 0.1
4.49498 2.25502 0.1
4.56569 2.18431 0.1
4.6364 2.1136 0.1
4.70711 2.04289 0.1
4.77782 1.97218 0.1
4.84853 1.90147 0.1
4.91924 1.83076 0.1
4.98995 1.76005 0.1
5.06066 1.68934 0.1
5.13137 1.61863 0.1
5.20208 1.54792 0.1
5.27279 1.47721 0.1
5.3435 1.4065 0.1
5.41421 1.33579 0.1
5.48492 1.26508 0.1
5.55563 1.19436 0.1
5.62635 1.12365 0.1
5.69706 1.05294 0.1
5.76777 0.982233 0.1
5.83848 0.911522 0.1
5.90919 0.840812 0.1
5.9799 0.770101 0.1