<?xml version="1.0"?>
<VTKFile type="UnstructuredGrid" version="0.1" byte_order="LittleEndian" compressor="vtkZLibDataCompressor">
 <UnstructuredGrid GhostLevel="0">
  <Piece NumberOfPoints="20" NumberOfCells="20">
   <PointData>
    <DataArray type="Float64" Name="Elongation" NumberOfComponents="3"/>
-3.61456e-05 -1.3636e-05 -1.62332e-05
4.96891e-08 9.54962e-08 0
1.5984e-07 -1.53768e-06 0
5.19861e-06 1.37244e-05 0
-1.15013e-05 9.11595e-06 0
-4.02385e-08 -9.98469e-08 0
-9.33334e-08 5.36427e-08 0
-9.3373e-08 -5.35695e-08 0
-3.74085e-06 4.33085e-05 0
-1.59384e-07 4.0423e-07 0
-1.07478e-07 -6.08075e-09 0
1.04301e-05 -1.03244e-05 0
-1.22467e-05 -8.08685e-06 0
1.05366e-07 2.20596e-08 0
1.07596e-07 3.42091e-09 0
6.36118e-09 1.07462e-07 0
-1.04903e-07 -2.41658e-08 0
8.98182e-08 -5.93398e-08 0
-8.49295e-08 -6.61475e-08 0
1.14308e-05 9.20447e-06 0
    <DataArray type="Float64" Name="norm"/>
4.19042e-05
1.0765e-07
1.54596e-06
1.4676e-05
1.46758e-05
1.0765e-07
1.07651e-07
1.07649e-07
4.34697e-05
4.34517e-07
1.0765e-07
1.46758e-05
1.46758e-05
1.0765e-07
1.0765e-07
1.0765e-07
1.0765e-07
1.0765e-07
1.0765e-07
1.4676e-05
   </PointData>
   <CellData>
   </CellData>
   <Points>
    <DataArray type="Float64" Name="Points" NumberOfComponents="3"/>
1.45435 2.34059 0.208154
2.16217 2.65177 0.0999486
2.26038 1.08817 0.0999486
2.54738 3.22167 0.0999486
1.00874 2.69119 0.0999486
1.70291 1.76238 0.0999486
2.14743 1.77915 0.0999486
2.86165 2.79107 0.0999486
1.45955 2.41103 0.0999122
1.51193 2.1434 0.0999486
2.25579 2.01849 0.0999486
2.41325 1.67876 0.0999486
0.993474 1.43439 0.0999486
1.86814 2.03203 0.0999486
2.70185 2.06752 0.0999486
1.83412 1.37561 0.0999486
0.933221 1.69967 0.0999486
0.983514 2.4325 0.0999486
2.4184 2.29268 0.0999486
3.36846 2.96977 0.0999486
   </Points>
   <Cells>
    <DataArray type="Int64" Name="connectivity" format="ascii">
0
1
2
3
4
5
6
7
8
9
10
11
12
13
14
15
16
17
18
19
    </DataArray>
    <DataArray type="Int64" Name="offsets" format="ascii">
1
2
3
4
5
6
7
8
9
10
11
12
13
14
15
16
17
18
19
20
    </DataArray>
    <DataArray type="Int64" Name="types" format="ascii">
1
1
1
1
1
1
1
1
1
1
1
1
1
1
1
1
1
1
1
1
    </DataArray>
   </Cells>
  </Piece>
 </UnstructuredGrid>
</VTKFile>