<?xml version="1.0"?>
<VTKFile type="UnstructuredGrid" version="0.1" byte_order="LittleEndian" compressor="vtkZLibDataCompressor">
 <UnstructuredGrid GhostLevel="0">
  <Piece NumberOfPoints="22" NumberOfCells="22">
   <PointData>
    <DataArray type="Float64" Name="Elongation" NumberOfComponents="3"/>
-8.55303e-05 -0.000191054 -1.62281e-10
3.84185e-05 0.000155926 -1.44252e-11
-1.07518e-05 -0.000132384 -2.41875e-12
5.4727e-06 9.6349e-05 9.37203e-13
-6.32286e-06 -6.94779e-05 3.7649e-13
-5.39872e-06 -4.80777e-05 3.27613e-13
3.80074e-06 3.17034e-05 -1.88909e-13
-2.41202e-06 -1.9696e-05 9.14992e-14
1.36419e-06 1.10502e-05 -3.45496e-14
-5.72094e-07 -4.6201e-06 7.20203e-15
-0.000359428 -0.000323771 -0.000233679
0.000441343 0.000106004 0.000236644
-0.0001093 -9.60777e-05 0.000103038
0.000138632 0.000115058 9.27764e-08
-0.000213012 -0.000276652 -4.31656e-08
-0.000121241 -0.000308299 -1.18709e-08
2.29297e-05 0.000316128 -7.20086e-10
-1.01676e-05 -0.000279558 6.74382e-10
7.73244e-05 0.000233425 -2.90296e-10
6.84198e-05 -7.43103e-05 0
-2.01724e-05 8.83635e-05 0
8.16902e-05 7.36987e-05 0
    <DataArray type="Float64" Name="norm"/>
0.000209325
0.00016059
0.00013282
9.65043e-05
6.9765e-05
4.83798e-05
3.19304e-05
1.98431e-05
1.11341e-05
4.65539e-06
0.000537236
0.00051188
0.000178309
0.000180159
0.000349157
0.000331282
0.000316959
0.000279743
0.000245899
0.000101011
9.06368e-05
0.000110022
   </PointData>
   <CellData>
   </CellData>
   <Points>
    <DataArray type="Float64" Name="Points" NumberOfComponents="3"/>
2 2 1.59269
2 2 1.79217
2 2 1.99178
2 2 2.19149
2 2 2.39129
2 2 2.59115
2 2 2.79107
2 2 2.99101
2 2 3.19098
2 2 3.39097
2.00005 2.05854 0.218133
2.05039 1.97095 0.218131
1.94952 1.97084 0.218151
1.99997 2.00014 0.398423
1.99998 2.00003 0.59719
2 2 0.796055
2 2 0.995028
2 2 1.19412
2 2 1.39334
2.00013 2.11686 0.0997021
2.10082 1.94168 0.0996977
1.89907 1.94146 0.0997391
   </Points>
   <Cells>
    <DataArray type="Int64" Name="connectivity" format="ascii">
0
1
2
3
4
5
6
7
8
9
10
11
12
13
14
15
16
17
18
19
20
21
    </DataArray>
    <DataArray type="Int64" Name="offsets" format="ascii">
1
2
3
4
5
6
7
8
9
10
11
12
13
14
15
16
17
18
19
20
21
22
    </DataArray>
    <DataArray type="Int64" Name="types" format="ascii">
1
1
1
1
1
1
1
1
1
1
1
1
1
1
1
1
1
1
1
1
1
1
    </DataArray>
   </Cells>
  </Piece>
 </UnstructuredGrid>
</VTKFile>