<?xml version="1.0"?>
<VTKFile type="UnstructuredGrid" version="0.1" byte_order="LittleEndian" compressor="vtkZLibDataCompressor">
 <UnstructuredGrid GhostLevel="0">
  <Piece NumberOfPoints="20" NumberOfCells="20">
   <PointData>
    <DataArray type="Float64" Name="Elongation" NumberOfComponents="3"/>
-4.069e-06 -1.05036e-05 -1.04192e-05
4.96891e-08 9.54962e-08 0
2.25952e-06 -1.45008e-05 0
5.19863e-06 1.37244e-05 0
-1.15013e-05 9.11597e-06 0
-4.02385e-08 -9.98469e-08 0
-9.33334e-08 5.36427e-08 0
-9.33652e-08 -5.35054e-08 0
-1.04411e-06 1.39809e-05 0
8.22638e-07 -7.18748e-06 0
-1.07478e-07 -6.08075e-09 0
1.04279e-05 -1.03223e-05 0
-1.22467e-05 -8.08687e-06 0
1.05366e-07 2.20596e-08 0
1.07596e-07 3.42091e-09 0
6.36118e-09 1.07462e-07 0
-1.04903e-07 -2.41658e-08 0
8.9818e-08 -5.93397e-08 0
-8.49295e-08 -6.61475e-08 0
1.14309e-05 9.20449e-06 0
    <DataArray type="Float64" Name="norm"/>
1.53441e-05
1.0765e-07
1.46757e-05
1.4676e-05
1.46758e-05
1.0765e-07
1.07651e-07
1.0761e-07
1.40199e-05
7.2344e-06
1.0765e-07
1.46729e-05
1.46758e-05
1.0765e-07
1.0765e-07
1.0765e-07
1.0765e-07
1.0765e-07
1.0765e-07
1.46761e-05
   </PointData>
   <CellData>
   </CellData>
   <Points>
    <DataArray type="Float64" Name="Points" NumberOfComponents="3"/>
1.45661 2.34097 0.208939
2.16217 2.65177 0.0999486
2.26038 1.08819 0.0999486
2.54602 3.21809 0.0999486
1.0099 2.69027 0.0999486
1.70291 1.76238 0.0999486
2.14744 1.77914 0.0999486
2.86164 2.79107 0.0999486
1.45972 2.41071 0.0999157
1.51195 2.14339 0.0999493
2.25579 2.01849 0.0999486
2.40791 1.68404 0.0999486
0.994145 1.43484 0.0999486
1.86814 2.03203 0.0999486
2.70185 2.06752 0.0999486
1.83412 1.37561 0.0999486
0.933222 1.69967 0.0999486
0.983514 2.4325 0.0999486
2.4184 2.29268 0.0999486
3.36449 2.96657 0.0999486
   </Points>
   <Cells>
    <DataArray type="Int64" Name="connectivity" format="ascii">
0
1
2
3
4
5
6
7
8
9
10
11
12
13
14
15
16
17
18
19
    </DataArray>
    <DataArray type="Int64" Name="offsets" format="ascii">
1
2
3
4
5
6
7
8
9
10
11
12
13
14
15
16
17
18
19
20
    </DataArray>
    <DataArray type="Int64" Name="types" format="ascii">
1
1
1
1
1
1
1
1
1
1
1
1
1
1
1
1
1
1
1
1
    </DataArray>
   </Cells>
  </Piece>
 </UnstructuredGrid>
</VTKFile>