<?xml version="1.0"?>
<VTKFile type="UnstructuredGrid" version="0.1" byte_order="LittleEndian" compressor="vtkZLibDataCompressor">
 <UnstructuredGrid GhostLevel="0">
  <Piece NumberOfPoints="22" NumberOfCells="22">
   <PointData>
    <DataArray type="Float64" Name="Elongation" NumberOfComponents="3"/>
-0.00010048 0.000138543 -3.96083e-06
-2.19673e-05 -9.41369e-06 -9.79399e-07
-1.24534e-05 1.11716e-05 1.00411e-07
-1.29826e-05 5.16563e-07 1.33518e-07
5.53554e-06 1.12857e-05 -1.18974e-07
1.91395e-06 9.01786e-05 -2.93923e-07
2.35057e-05 2.5177e-05 1.90235e-08
-2.2787e-05 -1.85934e-05 -9.64706e-10
1.61505e-05 7.0558e-06 -2.08501e-09
-5.26638e-07 -1.03289e-06 -8.27015e-11
-1.82392e-05 -0.000225428 -0.000238951
0.000264666 -0.000274607 0.000388591
-0.000244043 -0.000242273 0.000352343
9.34606e-05 4.75204e-05 -4.50064e-06
-0.000161899 -0.000141121 -1.82681e-05
7.11477e-05 -3.46468e-05 6.85715e-06
-7.37606e-05 -0.000103523 1.76272e-06
-8.52807e-05 -2.36343e-05 1.33434e-05
0.000139512 -9.87444e-05 1.01942e-07
7.77212e-05 -0.000320105 0
-0.000352842 0.000162933 0
0.000330136 0.000138376 0
    <DataArray type="Float64" Name="norm"/>
0.00017119
2.39194e-05
1.67303e-05
1.29935e-05
1.25707e-05
9.01994e-05
3.44441e-05
2.94102e-05
1.76245e-05
1.1594e-06
0.000329011
0.000544481
0.00049234
0.000104944
0.000215546
7.94319e-05
0.000127125
8.94954e-05
0.000170921
0.000329405
0.000388645
0.000357963
   </PointData>
   <CellData>
   </CellData>
   <Points>
    <DataArray type="Float64" Name="Points" NumberOfComponents="3"/>
2.00883 2.00485 1.56272
2.00187 2.00377 1.76183
1.99768 2.00079 1.96105
1.99823 1.99864 2.16043
1.99996 1.99858 2.35989
2.00045 1.99961 2.55944
2.00005 2 2.75908
1.99989 2.00008 2.9588
1.99989 2.00007 3.15859
1.99996 2.00003 3.35847
1.99941 2.0717 0.205606
2.06278 1.96293 0.205608
1.93666 1.96338 0.205632
2.00366 2.00115 0.373249
2.00101 1.99769 0.571485
1.98523 1.99258 0.769475
1.97734 1.99357 0.967913
1.99357 1.99654 1.16577
2.01018 2.0016 1.36367
1.99892 2.14427 0.0996879
2.12566 1.92671 0.0996911
1.87342 1.92761 0.099739
   </Points>
   <Cells>
    <DataArray type="Int64" Name="connectivity" format="ascii">
0
1
2
3
4
5
6
7
8
9
10
11
12
13
14
15
16
17
18
19
20
21
    </DataArray>
    <DataArray type="Int64" Name="offsets" format="ascii">
1
2
3
4
5
6
7
8
9
10
11
12
13
14
15
16
17
18
19
20
21
22
    </DataArray>
    <DataArray type="Int64" Name="types" format="ascii">
1
1
1
1
1
1
1
1
1
1
1
1
1
1
1
1
1
1
1
1
1
1
    </DataArray>
   </Cells>
  </Piece>
 </UnstructuredGrid>
</VTKFile>