<?xml version="1.0"?>
<VTKFile type="UnstructuredGrid" version="0.1" byte_order="LittleEndian" compressor="vtkZLibDataCompressor">
 <UnstructuredGrid GhostLevel="0">
  <Piece NumberOfPoints="19" NumberOfCells="19">
   <PointData>
    <DataArray type="Float64" Name="Elongation" NumberOfComponents="3"/>
-9.4152e-06 -1.30486e-06 3.62277e-07
3.48841e-06 9.29674e-06 0
2.25957e-06 -1.45011e-05 0
5.19863e-06 1.37244e-05 0
-1.15016e-05 9.11619e-06 0
-4.02385e-08 -9.98469e-08 0
-2.35463e-07 -1.9046e-08 0
8.34836e-06 1.20702e-05 0
-2.39906e-05 3.62271e-05 0
-1.06715e-07 1.51908e-08 0
-9.01959e-08 -9.91422e-09 0
-1.22465e-05 -8.08675e-06 0
1.05366e-07 2.20596e-08 0
1.07596e-07 3.42091e-09 0
6.36118e-09 1.07462e-07 0
-1.42995e-05 -3.30202e-06 0
-1.2097e-05 8.3093e-06 0
-8.49295e-08 -6.61475e-08 0
1.14311e-05 9.20472e-06 0
    <DataArray type="Float64" Name="norm"/>
9.51209e-06
9.92967e-06
1.46761e-05
1.4676e-05
1.46762e-05
1.0765e-07
2.36232e-07
1.4676e-05
4.34506e-05
1.0779e-07
9.07391e-08
1.46756e-05
1.0765e-07
1.0765e-07
1.0765e-07
1.46758e-05
1.46759e-05
1.0765e-07
1.46764e-05
   </PointData>
   <CellData>
   </CellData>
   <Points>
    <DataArray type="Float64" Name="Points" NumberOfComponents="3"/>
1.47566 2.35873 0.225223
2.16217 2.65177 0.0999486
2.25536 1.1204 0.0999486
2.51977 3.14878 0.0999486
1.04862 2.65959 0.0999486
1.70292 1.7624 0.0999486
2.14754 1.77908 0.0999486
2.85449 2.78074 0.0999486
1.4658 2.40545 0.0999073
1.51206 2.14877 0.0999486
2.25578 2.01849 0.0999486
1.02943 1.45813 0.0999486
1.86814 2.03203 0.0999486
2.70184 2.06752 0.0999486
1.83412 1.37561 0.0999486
0.934181 1.69989 0.0999486
0.989647 2.42828 0.0999486
2.4184 2.29268 0.0999486
3.29644 2.91177 0.0999486
   </Points>
   <Cells>
    <DataArray type="Int64" Name="connectivity" format="ascii">
0
1
2
3
4
5
6
7
8
9
10
11
12
13
14
15
16
17
18
    </DataArray>
    <DataArray type="Int64" Name="offsets" format="ascii">
1
2
3
4
5
6
7
8
9
10
11
12
13
14
15
16
17
18
19
    </DataArray>
    <DataArray type="Int64" Name="types" format="ascii">
1
1
1
1
1
1
1
1
1
1
1
1
1
1
1
1
1
1
1
    </DataArray>
   </Cells>
  </Piece>
 </UnstructuredGrid>
</VTKFile>