<?xml version="1.0"?>
<VTKFile type="UnstructuredGrid" version="0.1" byte_order="LittleEndian" compressor="vtkZLibDataCompressor">
 <UnstructuredGrid GhostLevel="0">
  <Piece NumberOfPoints="20" NumberOfCells="20">
   <PointData>
    <DataArray type="Float64" Name="radius"/>
0.1
0.1
0.1
0.1
0.1
0.1
0.1
0.1
0.1
0.1
0.1
0.1
0.1
0.1
0.1
0.1
0.1
0.1
0.1
0.1
    <DataArray type="Float64" Name="mass"/>
10.472
10.472
10.472
10.472
10.472
10.472
10.472
10.472
10.472
10.472
10.472
10.472
10.472
10.472
10.472
10.472
10.472
10.472
10.472
10.472
    <DataArray type="Float64" Name="particleIndex"/>
0
1
2
3
4
5
6
7
8
9
10
11
12
13
14
15
16
17
18
19
    <DataArray type="Float64" Name="clusterIndex"/>
0
1
2
3
4
5
6
7
8
9
10
11
12
13
14
15
16
17
18
19
    <DataArray type="Float64" Name="v" NumberOfComponents="3"/>
-0.00147802 0.0364566 -0.00195916
0.0337661 -0.0231316 -0.00107919
-0.0350412 -0.0190008 0.0008401
0.00695552 0.00273697 -0.037576
0.0109004 0.00629121 -0.0419125
0.00230122 -0.00590114 -0.0471943
-0.0226054 -0.0215231 -0.052312
-0.0136649 -0.0106407 -0.0571372
-0.0085705 -0.00358169 -0.0621031
0.0157598 0.0102738 -0.0667124
0.00294176 0.00794281 -0.0712257
0.000789092 0.00441152 -0.075442
-0.00478865 -0.00071938 -0.0793069
-1.57075e-06 -0.00376883 -0.082784
0.000565643 -0.00120441 -0.0858184
0.000241032 8.31927e-05 -0.0883856
-0.000200887 -0.000103239 -0.0904618
-6.95313e-05 -0.000178685 -0.0920316
-7.83366e-05 -0.000154541 -0.0930841
-8.82737e-05 -1.01824e-05 -0.0936123
    <DataArray type="Float64" Name="w" NumberOfComponents="3"/>
-0.0964136 -0.0426122 -0.0421135
0.0539258 0.0304064 0.0230569
0.0200118 -0.0836079 0.0181761
0.00922321 0.0794052 0.0043814
0.126036 0.191957 0.0155815
0.105848 0.00554343 0.0184657
0.046515 -0.121214 0.00503105
0.0496755 -0.0468187 0.00394874
0.025054 0.0107649 0.00364529
0.0298218 0.0205832 0.00182428
-0.0203712 -0.0433944 0.000434543
0.0412452 -0.0291748 0.000588074
0.00910057 -0.00810511 0.00103063
-0.0112119 -0.00199022 0.00122854
-0.015213 -0.00291219 0.00168208
0.00107382 0.00186976 0.00221947
0.000315483 0.00313035 0.00274324
-0.00083935 0.00322643 0.00314485
-0.000365872 -0.000930476 0.00347586
-0.000581915 -0.000668804 0.00381706
    <DataArray type="Float64" Name="FParticle" NumberOfComponents="3"/>
67.6106 134.026 -324.102
103.296 -186.301 -389.059
-87.5433 -128.759 -339.328
114.407 39.5032 104.935
-96.0886 109.623 93.685
49.836 109.419 88.7353
71.6502 170.187 77.71
-117.051 -38.1399 71.4881
-104.904 -209.646 75.1002
79.03 39.3338 65.3016
86.2019 -53.4479 61.5301
-29.0463 -24.7798 56.1225
-32.8597 -22.8543 53.073
-17.0185 9.31081 49.9864
-7.77305 28.5795 46.769
-14.3232 22.1489 44.4288
-17.7595 10.3879 42.5403
-17.0793 0.756167 41.1316
-15.6056 -4.01722 40.2051
-14.9796 -5.33058 39.7465
    <DataArray type="Float64" Name="FGrav" NumberOfComponents="3"/>
0 0 -102.73
0 0 -102.73
0 0 -102.73
0 0 -102.73
0 0 -102.73
0 0 -102.73
0 0 -102.73
0 0 -102.73
0 0 -102.73
0 0 -102.73
0 0 -102.73
0 0 -102.73
0 0 -102.73
0 0 -102.73
0 0 -102.73
0 0 -102.73
0 0 -102.73
0 0 -102.73
0 0 -102.73
0 0 -102.73
    <DataArray type="Float64" Name="MParticle" NumberOfComponents="3"/>
11.4156 5.06237 4.47484
1.32795 -14.6693 7.37697
-1.35409 13.014 -4.58887
23.7061 25.8731 6.47803
18.2655 30.9667 -0.394162
-3.02091 21.7423 -0.0440534
-33.5614 35.8748 -0.262989
-46.0586 34.4 0.476826
-21.4669 11.7669 0.305008
-3.93298 7.8933 -0.0122168
-2.41198 24.4035 0.0329381
5.45688 30.269 0.0575913
10.1115 24.2639 -0.000690062
11.419 19.2482 -0.014406
7.63423 16.715 -0.00235713
2.57233 14.5143 -0.000338134
-0.678212 11.3088 0.000529728
-1.79487 7.8247 -0.00039067
-1.46841 4.55608 -0.000267637
-0.533228 1.49779 -8.6659e-05
    <DataArray type="Float64" Name="FWall" NumberOfComponents="3"/>
-109.743 -123.241 412.551
-82.3301 182.268 500
79.4081 154.669 434.657
0 0 0
0 0 0
0 0 0
0 0 0
0 0 0
0 0 0
0 0 0
0 0 0
0 0 0
0 0 0
0 0 0
0 0 0
0 0 0
0 0 0
0 0 0
0 0 0
0 0 0
    <DataArray type="Float64" Name="MWall" NumberOfComponents="3"/>
-12.3241 10.9743 0
18.2268 8.23301 0
15.4669 -7.94081 0
0 0 0
0 0 0
0 0 0
0 0 0
0 0 0
0 0 0
0 0 0
0 0 0
0 0 0
0 0 0
0 0 0
0 0 0
0 0 0
0 0 0
0 0 0
0 0 0
0 0 0
    <DataArray type="Float64" Name="FHydro" NumberOfComponents="3"/>
0 0 0
0 0 0
0 0 0
0 0 0
0 0 0
0 0 0
0 0 0
0 0 0
0 0 0
0 0 0
0 0 0
0 0 0
0 0 0
0 0 0
0 0 0
0 0 0
0 0 0
0 0 0
0 0 0
0 0 0
    <DataArray type="Float64" Name="FSpringP" NumberOfComponents="3"/>
67.5661 -85.5539 -75.5781
-133.987 -52.4621 -80.2032
112.442 -16.3235 -79.4731
178.657 31.0223 231.227
-139.606 63.7953 3.75688
47.356 149.288 2.13193
93.9036 156.155 -2.26792
-108.713 -31.2404 -3.60155
-117.619 -214.681 4.00779
78.9327 39.33 0.210489
86.1691 -54.5413 0.287392
-27.514 -24.1474 -0.61218
-32.5365 -22.3974 -0.0463252
-17.6204 9.32236 0.210018
-7.71195 28.5251 -0.0343246
-14.2948 22.0938 -0.0153051
-17.76 10.4117 4.18428e-05
-17.0812 0.754938 0.000618197
-15.605 -4.01955 -7.88273e-06
-14.9779 -5.33228 -0.000416122
    <DataArray type="Float64" Name="FSpringW" NumberOfComponents="3"/>
-109.743 -123.241 0
-82.3301 182.268 0
79.4081 154.669 0
0 0 0
0 0 0
0 0 0
0 0 0
0 0 0
0 0 0
0 0 0
0 0 0
0 0 0
0 0 0
0 0 0
0 0 0
0 0 0
0 0 0
0 0 0
0 0 0
0 0 0
    <DataArray type="Float64" Name="MRolling" NumberOfComponents="3"/>
1.44628 7.46988 3.63285
6.11332 -8.9757 2.12014
3.60776 6.40184 -4.79722
7.1477 3.08723 3.28043
-0.52272 -4.07244 -2.84859
-2.02362 -1.07579 0.932566
1.12543 5.92927 -0.532032
-5.27162 -1.20158 0.856042
0.432879 0.186393 -0.588617
1.16103 -3.39281 0.0323798
1.40437 -0.00229966 -0.00653545
-1.28651 3.4925 0.0413458
0.105341 -0.25476 -0.0194055
2.2222 -0.952536 0.0111085
-0.276999 0.132251 -0.00599857
-0.439367 0.260049 0.00591842
-0.416966 -0.022988 -0.00477564
-0.193521 -0.20001 -0.00157433
0.00812644 -0.205062 -0.00342722
0.0642402 -0.18805 -0.00242045
   </PointData>
   <CellData>
   </CellData>
   <Points>
    <DataArray type="Float64" Name="Points" NumberOfComponents="3"/>
1.99982 2.13095 0.137299
2.1148 1.93387 0.137254
1.88461 1.93398 0.137279
1.99979 1.99874 0.286944
2.00547 2.00258 0.4859
2.0016 1.99614 0.684924
1.99664 1.99932 0.884091
1.99756 1.9988 1.08342
2.0013 2.00047 1.28279
2.00086 2.0005 1.48227
2.00031 2.00054 1.68181
1.99966 2.00005 1.88142
1.99977 1.99984 2.08108
2.0001 1.99989 2.28079
2.00003 1.99997 2.48055
2 2 2.68035
2 1.99998 2.88019
2 1.99999 3.08008
2 2 3.28001
1.99999 2.00001 3.47997
   </Points>
   <Cells>
    <DataArray type="Int64" Name="connectivity" format="ascii">
0
1
2
3
4
5
6
7
8
9
10
11
12
13
14
15
16
17
18
19
    </DataArray>
    <DataArray type="Int64" Name="offsets" format="ascii">
1
2
3
4
5
6
7
8
9
10
11
12
13
14
15
16
17
18
19
20
    </DataArray>
    <DataArray type="Int64" Name="types" format="ascii">
1
1
1
1
1
1
1
1
1
1
1
1
1
1
1
1
1
1
1
1
    </DataArray>
   </Cells>
  </Piece>
 </UnstructuredGrid>
</VTKFile>