<?xml version="1.0"?>
<VTKFile type="UnstructuredGrid" version="0.1" byte_order="LittleEndian" compressor="vtkZLibDataCompressor">
 <UnstructuredGrid GhostLevel="0">
  <Piece NumberOfPoints="20" NumberOfCells="20">
   <PointData>
    <DataArray type="Float64" Name="radius"/>
0.1
0.1
0.1
0.1
0.1
0.1
0.1
0.1
0.1
0.1
0.1
0.1
0.1
0.1
0.1
0.1
0.1
0.1
0.1
0.1
    <DataArray type="Float64" Name="mass"/>
10.472
10.472
10.472
10.472
10.472
10.472
10.472
10.472
10.472
10.472
10.472
10.472
10.472
10.472
10.472
10.472
10.472
10.472
10.472
10.472
    <DataArray type="Float64" Name="particleIndex"/>
0
1
2
3
4
5
6
7
8
9
10
11
12
13
14
15
16
17
18
19
    <DataArray type="Float64" Name="clusterIndex"/>
0
1
2
3
4
5
6
7
8
9
10
11
12
13
14
15
16
17
18
19
    <DataArray type="Float64" Name="v" NumberOfComponents="3"/>
-0.00537033 0.00898833 -0.000278853
0.00980377 -0.00931777 2.85552e-05
-0.0141276 -0.00537627 0.000164681
-0.000830135 -0.00249167 -0.0146801
0.332632 0.0293256 -0.104697
-0.115708 -0.165461 -0.339682
-0.857787 -0.254717 -1.36135
-0.616609 -0.138152 -1.41066
0.197744 0.028473 -2.08397
0.431088 0.100446 -2.11769
0.138917 0.0744861 -2.14749
-0.0358488 0.0304933 -2.15427
-0.0605969 -0.00498071 -2.14688
-0.0352894 -0.0135183 -2.13936
-0.013974 -0.015075 -2.13241
-0.00155287 -0.00976117 -2.12625
0.00297748 -0.00395079 -2.12118
0.0031663 -4.13192e-05 -2.11732
0.00162928 0.00200554 -2.11473
-0.000483175 0.00290623 -2.11342
    <DataArray type="Float64" Name="w" NumberOfComponents="3"/>
-0.0298688 -0.0582237 -0.0183051
0.0497189 0.0131057 0.0095661
0.0279937 -0.072491 0.0067934
0.0208127 0.231222 -0.0125004
-0.29656 3.12786 0.097575
2.51816 -7.9839 -0.291603
0.195189 -3.90459 -0.354783
-1.4193 6.11005 -0.152115
-0.866244 4.03248 -0.0790174
0.122253 -1.57928 0.0598387
0.126571 -1.38246 0.0520195
0.302696 -0.371513 0.0371752
0.0496181 0.123604 0.0168027
0.036452 0.126817 0.0160316
-0.0198769 0.0857561 0.0125501
-0.0330016 0.0384192 0.0100749
-0.0243936 0.00647367 0.00843944
-0.014631 -0.0052748 0.00770316
-0.00575238 -0.010038 0.00727066
-0.00361934 -0.0107358 0.00718292
    <DataArray type="Float64" Name="FParticle" NumberOfComponents="3"/>
-28.027 60.0551 -97.0551
48.2168 -25.867 -103.607
-51.711 -0.511688 -58.1972
12.3096 20.1454 99.591
21.0959 -33.4407 93.2128
-1.88426 -20.3812 66.0555
0 0 0
0 0 0
0 0 0
0 0 0
0 0 0
0 0 0
0 0 0
0 0 0
0 0 0
0 0 0
0 0 0
0 0 0
0 0 0
0 0 0
    <DataArray type="Float64" Name="FGrav" NumberOfComponents="3"/>
0 0 -102.73
0 0 -102.73
0 0 -102.73
0 0 -102.73
0 0 -102.73
0 0 -102.73
0 0 -102.73
0 0 -102.73
0 0 -102.73
0 0 -102.73
0 0 -102.73
0 0 -102.73
0 0 -102.73
0 0 -102.73
0 0 -102.73
0 0 -102.73
0 0 -102.73
0 0 -102.73
0 0 -102.73
0 0 -102.73
    <DataArray type="Float64" Name="MParticle" NumberOfComponents="3"/>
3.49728 -1.64531 -2.028
-2.31329 -3.68235 -0.157212
-2.12842 0.520324 1.88663
-6.62708 -2.54869 1.15015
-6.23062 -0.134549 0.694692
-0.547969 -2.3932 -0.754042
0 0 0
0 0 0
0 0 0
0 0 0
0 0 0
0 0 0
0 0 0
0 0 0
0 0 0
0 0 0
0 0 0
0 0 0
0 0 0
0 0 0
    <DataArray type="Float64" Name="FWall" NumberOfComponents="3"/>
56.9225 -75.8283 206.522
-80.4138 -18.5033 206.288
59.8428 -24.865 162.007
0 0 0
0 0 0
0 0 0
0 0 0
0 0 0
0 0 0
0 0 0
0 0 0
0 0 0
0 0 0
0 0 0
0 0 0
0 0 0
0 0 0
0 0 0
0 0 0
0 0 0
    <DataArray type="Float64" Name="MWall" NumberOfComponents="3"/>
-7.58283 -5.69225 0
-1.85033 8.04138 0
-2.4865 -5.98428 0
0 0 0
0 0 0
0 0 0
0 0 0
0 0 0
0 0 0
0 0 0
0 0 0
0 0 0
0 0 0
0 0 0
0 0 0
0 0 0
0 0 0
0 0 0
0 0 0
0 0 0
    <DataArray type="Float64" Name="FHydro" NumberOfComponents="3"/>
0 0 0
0 0 0
0 0 0
0 0 0
0 0 0
0 0 0
0 0 0
0 0 0
0 0 0
0 0 0
0 0 0
0 0 0
0 0 0
0 0 0
0 0 0
0 0 0
0 0 0
0 0 0
0 0 0
0 0 0
    <DataArray type="Float64" Name="FSpringP" NumberOfComponents="3"/>
-26.1035 -23.023 -26.3368
-23.2597 16.0253 -33.102
-3.63635 26.3367 -11.3659
74.367 39.2738 63.2381
-44.3956 -50.751 -0.650375
23.0282 -7.86176 8.21707
0 0 0
0 0 0
0 0 0
0 0 0
0 0 0
0 0 0
0 0 0
0 0 0
0 0 0
0 0 0
0 0 0
0 0 0
0 0 0
0 0 0
    <DataArray type="Float64" Name="FSpringW" NumberOfComponents="3"/>
56.9225 -75.8283 0
-80.4138 -18.5033 0
59.8428 -24.865 0
0 0 0
0 0 0
0 0 0
0 0 0
0 0 0
0 0 0
0 0 0
0 0 0
0 0 0
0 0 0
0 0 0
0 0 0
0 0 0
0 0 0
0 0 0
0 0 0
0 0 0
    <DataArray type="Float64" Name="MRolling" NumberOfComponents="3"/>
4.06695 -0.587913 0.976808
-3.96092 1.81153 -0.596446
-2.95697 1.66413 0.380346
-0.210684 -0.616115 0.151442
0.165416 -1.09131 -0.0420127
-0.0776879 0.311318 0.0105909
0 0 0
0 0 0
0 0 0
0 0 0
0 0 0
0 0 0
0 0 0
0 0 0
0 0 0
0 0 0
0 0 0
0 0 0
0 0 0
0 0 0
   </PointData>
   <CellData>
   </CellData>
   <Points>
    <DataArray type="Float64" Name="Points" NumberOfComponents="3"/>
1.99775 2.15136 0.137398
2.13261 1.9222 0.137397
1.86831 1.92492 0.137419
2.00127 1.99917 0.266945
2.05289 2.00527 0.45991
1.97531 1.96629 0.640011
1.80766 1.94283 0.748524
1.85024 1.96452 0.943086
2.05176 2.00481 1.03575
2.10629 2.02648 1.22952
2.03679 2.02223 1.4236
1.99068 2.00912 1.62168
1.98374 1.99833 1.82287
1.99131 1.99471 2.02412
1.99753 1.9958 2.22529
1.99996 1.9978 2.42635
2.00061 1.99927 2.62722
2.00051 2.0001 2.82789
2.0002 2.0005 3.02834
1.99991 2.00062 3.22856
   </Points>
   <Cells>
    <DataArray type="Int64" Name="connectivity" format="ascii">
0
1
2
3
4
5
6
7
8
9
10
11
12
13
14
15
16
17
18
19
    </DataArray>
    <DataArray type="Int64" Name="offsets" format="ascii">
1
2
3
4
5
6
7
8
9
10
11
12
13
14
15
16
17
18
19
20
    </DataArray>
    <DataArray type="Int64" Name="types" format="ascii">
1
1
1
1
1
1
1
1
1
1
1
1
1
1
1
1
1
1
1
1
    </DataArray>
   </Cells>
  </Piece>
 </UnstructuredGrid>
</VTKFile>