<?xml version="1.0"?>
<VTKFile type="UnstructuredGrid" version="0.1" byte_order="LittleEndian" compressor="vtkZLibDataCompressor">
 <UnstructuredGrid GhostLevel="0">
  <Piece NumberOfPoints="20" NumberOfCells="20">
   <PointData>
    <DataArray type="Float64" Name="radius"/>
0.1
0.1
0.1
0.1
0.1
0.1
0.1
0.1
0.1
0.1
0.1
0.1
0.1
0.1
0.1
0.1
0.1
0.1
0.1
0.1
    <DataArray type="Float64" Name="mass"/>
10.472
10.472
10.472
10.472
10.472
10.472
10.472
10.472
10.472
10.472
10.472
10.472
10.472
10.472
10.472
10.472
10.472
10.472
10.472
10.472
    <DataArray type="Float64" Name="particleIndex"/>
0
1
2
3
4
5
6
7
8
9
10
11
12
13
14
15
16
17
18
19
    <DataArray type="Float64" Name="clusterIndex"/>
0
1
2
3
4
5
6
7
8
9
10
11
12
13
14
15
16
17
18
19
    <DataArray type="Float64" Name="v" NumberOfComponents="3"/>
4.18693e-05 8.04674e-05 1.59743e-13
0.0141916 -0.0910767 -3.014e-13
-0.115377 -0.0761869 -3.79707e-13
4.68512e-05 9.80888e-06 -3.16748e-14
8.79823e-05 2.79732e-06 9.88404e-14
2.6599e-06 4.49346e-05 -3.27503e-13
-0.000102626 -2.36413e-05 1.51044e-13
5.57469e-05 -3.67769e-05 1.42342e-13
-5.37331e-05 -4.18501e-05 1.77146e-13
0.27492 0.221375 2.11951e-13
0.10268 0.271074 -3.27503e-13
-0.134939 0.106953 -1.62186e-13
-5.20311e-05 -0.000129109 -2.57896e-13
-0.000549424 0.000315778 -3.27503e-13
3.01257e-05 -0.000183018 2.0531e-14
-0.000198304 -8.20857e-05 -2.57147e-11
-0.00322711 -0.0415543 0.000922835
-0.180832 -0.0318884 -0.0575635
-2.83955e-05 -1.60652e-06 3.79338e-14
0.34204 -0.338571 -0.0201569
    <DataArray type="Float64" Name="w" NumberOfComponents="3"/>
0.00354668 -0.00184543 -2.42659e-73
0.910767 0.141916 -1.3763e-05
0.761869 -1.15377 -0.00114289
0.000907073 -0.00433254 7.74723e-167
0.000127903 -0.00402285 -1.22858e-205
0.00444723 -0.000263253 -5.52508e-164
-0.000864719 0.0037537 -2.60397e-59
-0.00234137 -0.00354383 -1.49378e-32
-0.00259556 0.00333254 -1.68819e-183
-2.21375 2.7492 -0.000644431
-2.71074 1.0268 0.00504883
-1.06953 -1.34939 -0.000337895
-0.00325851 0.00131319 2.47455e-233
-0.000713524 -0.00124147 -7.41188e-69
-0.00221678 0.00549278 -1.43045e-23
-0.00108112 0.00252753 4.61486e-25
0.42664 -0.0260431 0.0355176
-0.559773 -2.14908 0.15769
-0.000261008 0.00461336 1.97174e-85
3.27098 3.30428 -0.0526587
    <DataArray type="Float64" Name="FParticle" NumberOfComponents="3"/>
0 0 0
0 0 0
0 0 0
0 0 0
0 0 0
0 0 0
0 0 0
0 0 0
0 0 0
0 0 0
0 0 0
0 0 0
0 0 0
0 0 0
0 0 0
0 0 0
-9.0649 -37.4075 -49.1067
9.0649 37.4075 49.1067
0 0 0
0 0 0
    <DataArray type="Float64" Name="FGrav" NumberOfComponents="3"/>
0 0 -102.73
0 0 -102.73
0 0 -102.73
0 0 -102.73
0 0 -102.73
0 0 -102.73
0 0 -102.73
0 0 -102.73
0 0 -102.73
0 0 -102.73
0 0 -102.73
0 0 -102.73
0 0 -102.73
0 0 -102.73
0 0 -102.73
0 0 -102.73
0 0 -102.73
0 0 -102.73
0 0 -102.73
0 0 -102.73
    <DataArray type="Float64" Name="MParticle" NumberOfComponents="3"/>
0 0 0
0 0 0
0 0 0
0 0 0
0 0 0
0 0 0
0 0 0
0 0 0
0 0 0
0 0 0
0 0 0
0 0 0
0 0 0
0 0 0
0 0 0
0 0 0
-0.253253 -1.80952 1.42517
-0.253253 -1.80952 1.42517
0 0 0
0 0 0
    <DataArray type="Float64" Name="FWall" NumberOfComponents="3"/>
-19.2458 -36.9881 102.73
-2.25953 14.5009 102.73
12.2468 8.08692 102.73
-40.8107 -8.54424 102.73
-41.6745 -1.325 102.73
-2.46385 -41.6227 102.73
40.6314 9.36002 102.73
-34.7893 22.9841 102.73
32.8953 25.6206 102.73
-11.4309 -9.20455 102.73
-5.19865 -13.7245 102.73
11.5014 -9.11603 102.73
15.5854 38.6732 102.73
36.1502 -20.7771 102.73
36.265 20.7327 102.73
38.2848 16.5151 102.73
12.497 50.0126 145.191
0 0 0
41.629 2.35523 102.73
-108.422 107.337 816.489
    <DataArray type="Float64" Name="MWall" NumberOfComponents="3"/>
-3.69881 1.92458 0
1.45009 0.225953 0
0.808692 -1.22468 0
-0.854424 4.08107 0
-0.1325 4.16745 0
-4.16227 0.246385 0
0.936002 -4.06314 0
2.29841 3.47893 0
2.56206 -3.28953 0
-0.920455 1.14309 0
-1.37245 0.519865 0
-0.911603 -1.15014 0
3.86732 -1.55854 0
-2.07771 -3.61502 0
2.07327 -3.6265 0
1.65151 -3.82848 0
5.00126 -1.2497 0
0 0 0
0.235523 -4.1629 0
10.7337 10.8422 0
    <DataArray type="Float64" Name="FHydro" NumberOfComponents="3"/>
0 0 0
0 0 0
0 0 0
0 0 0
0 0 0
0 0 0
0 0 0
0 0 0
0 0 0
0 0 0
0 0 0
0 0 0
0 0 0
0 0 0
0 0 0
0 0 0
0 0 0
0 0 0
0 0 0
0 0 0
    <DataArray type="Float64" Name="FSpringP" NumberOfComponents="3"/>
0 0 0
0 0 0
0 0 0
0 0 0
0 0 0
0 0 0
0 0 0
0 0 0
0 0 0
0 0 0
0 0 0
0 0 0
0 0 0
0 0 0
0 0 0
0 0 0
-22.4068 -1.38652 -5.74215
22.4068 1.38652 5.74215
0 0 0
0 0 0
    <DataArray type="Float64" Name="FSpringW" NumberOfComponents="3"/>
-19.2458 -36.9881 0
-2.25953 14.5009 0
12.2468 8.08692 0
-40.8107 -8.54424 0
-41.6745 -1.325 0
-2.46385 -41.6227 0
40.6314 9.36002 0
-34.7893 22.9841 0
32.8953 25.6206 0
-11.4309 -9.20455 0
-5.19865 -13.7245 0
11.5014 -9.11603 0
15.5854 38.6732 0
36.1502 -20.7771 0
36.265 20.7327 0
38.2848 16.5151 0
12.497 50.0126 0
0 0 0
41.629 2.35523 0
-108.422 107.337 0
    <DataArray type="Float64" Name="MRolling" NumberOfComponents="3"/>
-1.82263 0.948364 8.87345e-72
-2.0301 -0.316332 3.06777e-05
-1.13216 1.71453 0.00169836
-0.421028 2.011 -2.80072e-165
-0.0652913 2.05356 4.48938e-204
-2.05101 0.121409 1.99587e-162
0.461227 -2.00216 9.55939e-58
1.13256 1.71426 5.42606e-31
1.26249 -1.62096 6.13609e-182
1.2886 -1.60028 0.000375116
1.92138 -0.727793 -0.00357861
1.27623 1.61017 0.000403196
1.90567 -0.76799 -9.1673e-232
-1.02382 -1.78134 3.14844e-67
0.985187 -1.803 4.97523e-22
0.813486 -1.8867 -1.74526e-23
-3.0184 -0.273782 -0.160401
0.119908 0.263238 -0.0150874
0.116057 -2.05132 -7.09125e-84
-11.4875 -11.6045 0.184935
   </PointData>
   <CellData>
   </CellData>
   <Points>
    <DataArray type="Float64" Name="Points" NumberOfComponents="3"/>
2.16217 2.65176 0.137449
2.25992 1.09116 0.137449
0.998962 1.43802 0.137449
1.86814 2.03203 0.137449
2.70185 2.06752 0.137449
1.83412 1.37561 0.137449
0.933224 1.69967 0.137449
0.983514 2.4325 0.137449
2.4184 2.29268 0.137449
3.34996 2.95487 0.137449
2.54076 3.20418 0.137449
1.01602 2.68542 0.137449
1.70291 1.76239 0.137449
2.14747 1.77913 0.137449
2.86164 2.79107 0.137449
1.4599 2.4103 0.137449
1.51206 2.14443 0.137425
1.46602 2.26874 0.287081
2.25579 2.01849 0.137449
2.38954 1.70223 0.137156
   </Points>
   <Cells>
    <DataArray type="Int64" Name="connectivity" format="ascii">
0
1
2
3
4
5
6
7
8
9
10
11
12
13
14
15
16
17
18
19
    </DataArray>
    <DataArray type="Int64" Name="offsets" format="ascii">
1
2
3
4
5
6
7
8
9
10
11
12
13
14
15
16
17
18
19
20
    </DataArray>
    <DataArray type="Int64" Name="types" format="ascii">
1
1
1
1
1
1
1
1
1
1
1
1
1
1
1
1
1
1
1
1
    </DataArray>
   </Cells>
  </Piece>
 </UnstructuredGrid>
</VTKFile>