<?xml version="1.0"?>
<VTKFile type="UnstructuredGrid" version="0.1" byte_order="LittleEndian" compressor="vtkZLibDataCompressor">
 <UnstructuredGrid GhostLevel="0">
  <Piece NumberOfPoints="20" NumberOfCells="20">
   <PointData>
    <DataArray type="Float64" Name="radius"/>
0.1
0.1
0.1
0.1
0.1
0.1
0.1
0.1
0.1
0.1
0.1
0.1
0.1
0.1
0.1
0.1
0.1
0.1
0.1
0.1
    <DataArray type="Float64" Name="mass"/>
10.472
10.472
10.472
10.472
10.472
10.472
10.472
10.472
10.472
10.472
10.472
10.472
10.472
10.472
10.472
10.472
10.472
10.472
10.472
10.472
    <DataArray type="Float64" Name="particleIndex"/>
0
1
2
3
4
5
6
7
8
9
10
11
12
13
14
15
16
17
18
19
    <DataArray type="Float64" Name="clusterIndex"/>
0
1
2
3
4
5
6
7
8
9
10
11
12
13
14
15
16
17
18
19
    <DataArray type="Float64" Name="v" NumberOfComponents="3"/>
4.18685e-05 8.04658e-05 1.59743e-13
-2.02519e-05 -8.95271e-05 -3.014e-13
-9.8927e-05 -4.14334e-05 -3.79707e-13
4.68534e-05 9.80936e-06 -3.16748e-14
8.79808e-05 2.79727e-06 9.88404e-14
2.66005e-06 4.49372e-05 -3.27503e-13
-0.000102622 -2.36405e-05 1.51044e-13
5.54812e-05 -3.66545e-05 1.42342e-13
-5.37334e-05 -4.18503e-05 1.77146e-13
8.00479e-05 6.43869e-05 2.11951e-13
-6.32397e-06 -2.50655e-05 -3.27503e-13
-8.71691e-05 6.90049e-05 -1.62186e-13
-5.20287e-05 -0.000129103 -2.57896e-13
-0.000549378 0.000315751 -3.27503e-13
-1.60059e-05 -9.18302e-06 2.0531e-14
0.000935125 -0.000170029 -3.14537e-06
0.000801974 0.000510409 -3.14649e-06
-0.500172 -0.0979154 -0.904003
-2.83997e-05 -1.60676e-06 3.79338e-14
0.0179458 -0.0177641 -1.36083e-13
    <DataArray type="Float64" Name="w" NumberOfComponents="3"/>
0.00354669 -0.00184544 -4.54767e-194
-0.003889 0.000879731 7.06482e-112
-0.00148059 0.00353508 -5.89963e-100
0.000907068 -0.00433252 1.44692e-287
0.000127903 -0.00402286 -8.39912e-323
0.00444721 -0.000263251 -1.02985e-284
-0.000864727 0.00375373 -4.83076e-180
-0.00233731 -0.00353782 -2.81113e-153
-0.00259556 0.00333254 -3.17767e-304
0.00243031 -0.00302145 -6.70967e-44
-0.00450546 0.00113672 4.06889e-58
0.00235448 0.00297426 -4.46226e-91
-0.00325856 0.00131321 8.39912e-323
-0.000713255 -0.001241 -1.84511e-191
-0.00234917 0.00409458 -2.57952e-144
0.000711812 0.0142894 -3.35497e-10
-0.00605188 0.0129657 3.35503e-10
1.73747 -8.882 0.00105469
-0.000261006 0.00461332 3.61722e-206
0.177641 0.179458 -1.80042e-06
    <DataArray type="Float64" Name="FParticle" NumberOfComponents="3"/>
0 0 0
0 0 0
0 0 0
0 0 0
0 0 0
0 0 0
0 0 0
0 0 0
0 0 0
0 0 0
0 0 0
0 0 0
0 0 0
0 0 0
0 0 0
0 0 0
0 0 0
0 0 0
0 0 0
0 0 0
    <DataArray type="Float64" Name="FGrav" NumberOfComponents="3"/>
0 0 -102.73
0 0 -102.73
0 0 -102.73
0 0 -102.73
0 0 -102.73
0 0 -102.73
0 0 -102.73
0 0 -102.73
0 0 -102.73
0 0 -102.73
0 0 -102.73
0 0 -102.73
0 0 -102.73
0 0 -102.73
0 0 -102.73
0 0 -102.73
0 0 -102.73
0 0 -102.73
0 0 -102.73
0 0 -102.73
    <DataArray type="Float64" Name="MParticle" NumberOfComponents="3"/>
0 0 0
0 0 0
0 0 0
0 0 0
0 0 0
0 0 0
0 0 0
0 0 0
0 0 0
0 0 0
0 0 0
0 0 0
0 0 0
0 0 0
0 0 0
0 0 0
0 0 0
0 0 0
0 0 0
0 0 0
    <DataArray type="Float64" Name="FWall" NumberOfComponents="3"/>
-19.2458 -36.9881 102.73
9.19952 40.668 102.73
38.4586 16.1075 102.73
-40.8107 -8.54424 102.73
-41.6745 -1.325 102.73
-2.46385 -41.6227 102.73
40.6314 9.36002 102.73
-34.7889 22.9838 102.73
32.8953 25.6206 102.73
-32.4896 -26.1331 102.73
10.2001 40.4287 102.73
32.6919 -25.8796 102.73
15.5854 38.6732 102.73
36.1502 -20.7771 102.73
36.166 20.7494 102.73
41.6913 -1.05702 102.751
38.2098 16.7119 102.751
0 0 0
41.629 2.35523 102.73
-10.43 10.3244 102.73
    <DataArray type="Float64" Name="MWall" NumberOfComponents="3"/>
-3.69881 1.92458 0
4.0668 -0.919952 0
1.61075 -3.84586 0
-0.854424 4.08107 0
-0.1325 4.16745 0
-4.16227 0.246385 0
0.936002 -4.06314 0
2.29838 3.47889 0
2.56206 -3.28953 0
-2.61331 3.24896 0
4.04287 -1.02001 0
-2.58796 -3.26919 0
3.86732 -1.55854 0
-2.07771 -3.61502 0
2.07494 -3.6166 0
-0.105702 -4.16913 0
1.67119 -3.82098 0
0 0 0
0.235523 -4.1629 0
1.03244 1.043 0
    <DataArray type="Float64" Name="FHydro" NumberOfComponents="3"/>
0 0 0
0 0 0
0 0 0
0 0 0
0 0 0
0 0 0
0 0 0
0 0 0
0 0 0
0 0 0
0 0 0
0 0 0
0 0 0
0 0 0
0 0 0
0 0 0
0 0 0
0 0 0
0 0 0
0 0 0
    <DataArray type="Float64" Name="FSpringP" NumberOfComponents="3"/>
0 0 0
0 0 0
0 0 0
0 0 0
0 0 0
0 0 0
0 0 0
0 0 0
0 0 0
0 0 0
0 0 0
0 0 0
0 0 0
0 0 0
0 0 0
0 0 0
0 0 0
0 0 0
0 0 0
0 0 0
    <DataArray type="Float64" Name="FSpringW" NumberOfComponents="3"/>
-19.2458 -36.9881 0
9.19952 40.668 0
38.4586 16.1075 0
-40.8107 -8.54424 0
-41.6745 -1.325 0
-2.46385 -41.6227 0
40.6314 9.36002 0
-34.7889 22.9838 0
32.8953 25.6206 0
-32.4896 -26.1331 0
10.2001 40.4287 0
32.6919 -25.8796 0
15.5854 38.6732 0
36.1502 -20.7771 0
36.166 20.7494 0
41.6913 -1.05702 0
38.2098 16.7119 0
0 0 0
41.629 2.35523 0
-10.43 10.3244 0
    <DataArray type="Float64" Name="MRolling" NumberOfComponents="3"/>
-1.82263 0.948364 1.66297e-192
2.00397 -0.453318 -2.58418e-110
0.79372 -1.8951 2.16693e-98
-0.421028 2.011 -5.2308e-286
-0.0652913 2.05356 3.04344e-321
-2.05101 0.121409 3.7202e-283
0.461227 -2.00216 1.77341e-178
1.13256 1.71427 1.02132e-151
1.26249 -1.62096 1.15499e-302
-1.28774 1.60097 2.46149e-42
1.99217 -0.502621 -1.46235e-56
-1.27525 -1.61094 1.64071e-89
1.90567 -0.76799 -3.09779e-321
-1.02382 -1.78134 7.8376e-190
1.02245 -1.78213 9.25247e-143
-0.0677753 -2.05391 9.34478e-09
0.837835 -1.87648 -9.34457e-09
0 0 0
0.116057 -2.05132 -1.30092e-204
-1.44541 -1.4602 1.46495e-05
   </PointData>
   <CellData>
   </CellData>
   <Points>
    <DataArray type="Float64" Name="Points" NumberOfComponents="3"/>
2.16217 2.65177 0.137449
2.26038 1.08816 0.137449
0.993266 1.43426 0.137449
1.86813 2.03203 0.137449
2.70185 2.06752 0.137449
1.83412 1.3756 0.137449
0.933213 1.69967 0.137449
0.983512 2.4325 0.137449
2.4184 2.29268 0.137449
3.38458 2.98274 0.137449
2.55137 3.23222 0.137449
1.00773 2.692 0.137449
1.7029 1.76237 0.137449
2.14731 1.77922 0.137449
2.86166 2.79108 0.137449
1.45909 2.41149 0.137449
1.51171 2.14269 0.137449
1.35915 2.25238 0.20626
2.2558 2.01849 0.137449
2.44624 1.6461 0.137449
   </Points>
   <Cells>
    <DataArray type="Int64" Name="connectivity" format="ascii">
0
1
2
3
4
5
6
7
8
9
10
11
12
13
14
15
16
17
18
19
    </DataArray>
    <DataArray type="Int64" Name="offsets" format="ascii">
1
2
3
4
5
6
7
8
9
10
11
12
13
14
15
16
17
18
19
20
    </DataArray>
    <DataArray type="Int64" Name="types" format="ascii">
1
1
1
1
1
1
1
1
1
1
1
1
1
1
1
1
1
1
1
1
    </DataArray>
   </Cells>
  </Piece>
 </UnstructuredGrid>
</VTKFile>