<?xml version="1.0"?>
<VTKFile type="UnstructuredGrid" version="0.1" byte_order="LittleEndian" compressor="vtkZLibDataCompressor">
 <UnstructuredGrid GhostLevel="0">
  <Piece NumberOfPoints="20" NumberOfCells="20">
   <PointData>
    <DataArray type="Float64" Name="radius"/>
0.1
0.1
0.1
0.1
0.1
0.1
0.1
0.1
0.1
0.1
0.1
0.1
0.1
0.1
0.1
0.1
0.1
0.1
0.1
0.1
    <DataArray type="Float64" Name="mass"/>
10.472
10.472
10.472
10.472
10.472
10.472
10.472
10.472
10.472
10.472
10.472
10.472
10.472
10.472
10.472
10.472
10.472
10.472
10.472
10.472
    <DataArray type="Float64" Name="particleIndex"/>
0
1
2
3
4
5
6
7
8
9
10
11
12
13
14
15
16
17
18
19
    <DataArray type="Float64" Name="clusterIndex"/>
0
1
2
3
4
5
6
7
8
9
10
11
12
13
14
15
16
17
18
19
    <DataArray type="Float64" Name="v" NumberOfComponents="3"/>
-0.00388496 0.0850693 0.00425559
0.0812944 -0.0513553 0.00303272
-0.0540923 -0.0342229 0.00116954
0.0144816 -0.00235653 -0.0777173
0.0888601 0.00391318 -0.0641039
-0.0971757 -0.0915451 -0.0677083
-0.492408 -0.162522 -0.102859
-0.422735 -0.0943951 -0.0888559
0.145967 0.0195048 -0.191591
0.324168 0.0768305 -0.184449
0.120456 0.0655753 -0.180295
-0.0165781 0.030574 -0.175005
-0.0494653 -0.00331873 -0.164537
-0.0307429 -0.0156828 -0.154871
-0.0121911 -0.0148596 -0.14633
-9.38734e-05 -0.00807805 -0.138961
0.00417325 -0.00172814 -0.132947
0.00124063 0.00112006 -0.128361
-0.000516651 0.0013103 -0.12526
-0.000141889 0.00176562 -0.123697
    <DataArray type="Float64" Name="w" NumberOfComponents="3"/>
-0.0408214 0.0157845 -0.00604125
0.0372206 0.0526026 0.00972654
0.0501905 -0.0109585 -0.0202489
-0.075785 0.35414 0.0032632
-0.200014 0.474779 -0.00605511
0.390035 -2.11839 -0.0050858
0.135997 -1.92135 -0.0289933
-0.582184 2.83349 -0.0402594
-0.584825 2.69198 -0.0353142
-0.0563154 -1.05751 0.0344134
0.0143659 -0.997259 0.032176
0.206747 -0.424429 0.0246227
0.0408477 0.0970186 0.011973
-0.0225808 0.126017 0.0101865
-0.058179 0.103216 0.00808977
-0.0569188 0.0549229 0.00613893
-0.029811 0.00843189 0.00483576
-0.0186188 -0.00456002 0.00438783
-0.0063117 -0.000370422 0.00376907
-0.00306214 0.0063427 0.00337088
    <DataArray type="Float64" Name="FParticle" NumberOfComponents="3"/>
-14.0696 175.478 -365.428
171.666 -81.7187 -394.108
-143.799 -46.867 -300.929
131.866 209.661 94.9089
-78.2919 -205.071 131.741
-97.3909 112.063 79.4131
-241.331 -31.7411 102.443
159.669 -150.323 99.7117
-42.0136 -31.9081 41.5024
45.3856 66.8497 42.4349
38.3602 27.5167 49.251
26.2467 56.585 49.562
34.535 -54.0258 44.6371
19.8006 -6.5559 45.0159
4.8494 7.11739 46.527
18.8843 4.04223 46.5524
-21.976 -29.3037 46.5822
-10.1891 -13.1724 46.6665
4.02128 4.6938 46.74
-6.22275 -13.32 46.7757
    <DataArray type="Float64" Name="FGrav" NumberOfComponents="3"/>
0 0 -102.73
0 0 -102.73
0 0 -102.73
0 0 -102.73
0 0 -102.73
0 0 -102.73
0 0 -102.73
0 0 -102.73
0 0 -102.73
0 0 -102.73
0 0 -102.73
0 0 -102.73
0 0 -102.73
0 0 -102.73
0 0 -102.73
0 0 -102.73
0 0 -102.73
0 0 -102.73
0 0 -102.73
0 0 -102.73
    <DataArray type="Float64" Name="MParticle" NumberOfComponents="3"/>
15.0198 -0.705749 -0.917187
-8.98569 -13.4947 -1.11586
-7.73464 9.58004 2.20398
-29.1967 14.1149 1.0009
-27.4962 18.7353 0.829967
-15.9005 -12.7593 -2.13335
-29.8947 -38.4318 -1.49895
-13.9942 -25.6725 0.634401
3.29687 -13.646 0.355199
1.46617 -26.7656 0.318521
-5.39814 -22.1765 -0.390841
-12.9956 -13.7198 -0.507615
-13.7835 -5.20195 -0.1077
-8.54628 0.774253 0.0739599
-8.99829 2.8415 0.0174472
-9.9412 4.93689 -0.0227744
-7.31483 4.63951 -0.0133869
-3.04257 1.4518 -0.00127364
-2.19251 0.846474 0.00117054
-1.33085 0.625499 0.0010715
    <DataArray type="Float64" Name="FWall" NumberOfComponents="3"/>
38.7859 -190.067 484.96
-177.205 89.849 496.703
144.723 56.2488 388.173
0 0 0
0 0 0
0 0 0
0 0 0
0 0 0
0 0 0
0 0 0
0 0 0
0 0 0
0 0 0
0 0 0
0 0 0
0 0 0
0 0 0
0 0 0
0 0 0
0 0 0
    <DataArray type="Float64" Name="MWall" NumberOfComponents="3"/>
-19.0067 -3.87859 0
8.9849 17.7205 0
5.62488 -14.4723 0
0 0 0
0 0 0
0 0 0
0 0 0
0 0 0
0 0 0
0 0 0
0 0 0
0 0 0
0 0 0
0 0 0
0 0 0
0 0 0
0 0 0
0 0 0
0 0 0
0 0 0
    <DataArray type="Float64" Name="FHydro" NumberOfComponents="3"/>
0 0 0
0 0 0
0 0 0
0 0 0
0 0 0
0 0 0
0 0 0
0 0 0
0 0 0
0 0 0
0 0 0
0 0 0
0 0 0
0 0 0
0 0 0
0 0 0
0 0 0
0 0 0
0 0 0
0 0 0
    <DataArray type="Float64" Name="FSpringP" NumberOfComponents="3"/>
-11.5281 -101.729 -110.507
-87.2368 67.9361 -119.096
56.7936 66.4388 -89.478
228.952 242.366 305.635
-186.981 -275.012 13.4458
-126.604 160.427 -15.8803
-130.116 -20.3897 19.8483
256.72 -140.038 -3.96799
-136.426 -32.8125 5.68118
5.39135 51.1153 -12.2041
40.5245 17.4962 2.74342
43.8633 58.4786 4.99768
41.2612 -50.7243 -0.761233
18.5157 -1.64345 -0.869304
2.15229 6.16254 0.216735
18.8045 3.26685 0.181559
-21.7787 -29.5302 0.0196851
-10.0985 -13.1925 -0.00491208
4.04523 4.69186 -0.0017172
-6.25499 -13.3085 0.00102908
    <DataArray type="Float64" Name="FSpringW" NumberOfComponents="3"/>
38.7859 -190.067 0
-177.205 89.849 0
144.723 56.2488 0
0 0 0
0 0 0
0 0 0
0 0 0
0 0 0
0 0 0
0 0 0
0 0 0
0 0 0
0 0 0
0 0 0
0 0 0
0 0 0
0 0 0
0 0 0
0 0 0
0 0 0
    <DataArray type="Float64" Name="MRolling" NumberOfComponents="3"/>
5.52051 -7.64894 -0.774788
-7.9082 1.8257 -6.44417
-6.36192 -0.219365 4.4902
2.69919 -2.76185 1.01787
-3.50661 -5.91129 -0.589693
-3.99296 6.09465 -0.297432
2.61606 1.24632 0.240415
-0.50118 -5.86615 0.0926106
1.37376 0.0666333 -0.0142732
1.89213 3.09962 0.037927
-1.32487 1.32446 -0.121884
-1.56236 -0.125602 -0.0337179
-0.943547 -2.10213 0.0127242
0.371707 -0.329549 0.0613107
1.2193 -0.471439 -0.0535458
0.159029 0.24604 0.0220002
-0.572505 1.48858 -0.00718794
0.788879 -0.299918 0.01802
-0.518625 -0.0804798 0.00258133
0.136949 -0.189425 0.00775156
   </PointData>
   <CellData>
   </CellData>
   <Points>
    <DataArray type="Float64" Name="Points" NumberOfComponents="3"/>
1.99886 2.14608 0.137245
2.12738 1.92567 0.137242
1.87211 1.92683 0.137301
2.00021 1.99918 0.27233
2.00883 2.00304 0.47108
1.99283 1.99081 0.669138
1.967 1.98998 0.866638
1.97144 1.99248 1.06584
2.01094 1.99903 1.26114
2.0176 2.00582 1.46034
2.00779 2.00663 1.65957
1.99793 2.00273 1.85881
1.99634 1.99936 2.05836
1.99866 1.99756 2.25796
2.00045 1.99896 2.45763
2.00028 1.99983 2.65736
1.99998 2.00008 2.85715
1.99986 2.0001 3.05699
1.99988 2.00008 3.25688
2.00002 2.00003 3.45683
   </Points>
   <Cells>
    <DataArray type="Int64" Name="connectivity" format="ascii">
0
1
2
3
4
5
6
7
8
9
10
11
12
13
14
15
16
17
18
19
    </DataArray>
    <DataArray type="Int64" Name="offsets" format="ascii">
1
2
3
4
5
6
7
8
9
10
11
12
13
14
15
16
17
18
19
20
    </DataArray>
    <DataArray type="Int64" Name="types" format="ascii">
1
1
1
1
1
1
1
1
1
1
1
1
1
1
1
1
1
1
1
1
    </DataArray>
   </Cells>
  </Piece>
 </UnstructuredGrid>
</VTKFile>