<?xml version="1.0"?>
<VTKFile type="UnstructuredGrid" version="0.1" byte_order="LittleEndian" compressor="vtkZLibDataCompressor">
 <UnstructuredGrid GhostLevel="0">
  <Piece NumberOfPoints="20" NumberOfCells="20">
   <PointData>
    <DataArray type="Float64" Name="radius"/>
0.1
0.1
0.1
0.1
0.1
0.1
0.1
0.1
0.1
0.1
0.1
0.1
0.1
0.1
0.1
0.1
0.1
0.1
0.1
0.1
    <DataArray type="Float64" Name="mass"/>
10.472
10.472
10.472
10.472
10.472
10.472
10.472
10.472
10.472
10.472
10.472
10.472
10.472
10.472
10.472
10.472
10.472
10.472
10.472
10.472
    <DataArray type="Float64" Name="particleIndex"/>
0
1
2
3
4
5
6
7
8
9
10
11
12
13
14
15
16
17
18
19
    <DataArray type="Float64" Name="clusterIndex"/>
0
1
2
3
4
5
6
7
8
9
10
11
12
13
14
15
16
17
18
19
    <DataArray type="Float64" Name="v" NumberOfComponents="3"/>
4.18662e-05 8.04615e-05 1.59743e-13
-2.02508e-05 -8.95221e-05 -3.014e-13
-9.89185e-05 -4.14298e-05 -3.79707e-13
4.68597e-05 9.81068e-06 -3.16748e-14
8.79767e-05 2.79714e-06 9.88404e-14
2.66047e-06 4.49444e-05 -3.27503e-13
-0.000102614 -2.36386e-05 1.51044e-13
5.54825e-05 -3.66554e-05 1.42342e-13
-5.37342e-05 -4.1851e-05 1.77146e-13
8.00481e-05 6.43869e-05 2.11951e-13
-6.32697e-06 -2.50774e-05 -3.27503e-13
-8.71611e-05 6.89985e-05 -1.62186e-13
-5.20221e-05 -0.000129086 -2.57896e-13
-0.000549249 0.000315677 -3.27503e-13
-1.60182e-05 -9.19009e-06 2.0531e-14
0.000930718 7.02959e-05 -2.49194e-13
0.000888593 0.00028614 -2.40493e-13
-8.33121e-05 -1.68696e-05 -5.57205e-15
-2.84112e-05 -1.60741e-06 3.79338e-14
-3.40046e-05 3.24657e-05 -1.36083e-13
    <DataArray type="Float64" Name="w" NumberOfComponents="3"/>
0.00354674 -0.00184546 -8.39912e-323
-0.00388905 0.000879742 8.39912e-323
-0.00148063 0.00353517 -8.39912e-323
0.000907055 -0.00433246 8.39912e-323
0.000127905 -0.00402291 -8.39912e-323
0.00444713 -0.000263247 -8.39912e-323
-0.000864746 0.00375382 -8.39912e-323
-0.00233731 -0.00353781 -8.39912e-323
-0.00259555 0.00333253 -8.39912e-323
0.00243049 -0.00302167 -8.39912e-323
-0.00450534 0.00113669 8.39912e-323
0.00235455 0.00297434 -8.39912e-323
-0.00325873 0.00131328 8.39912e-323
-0.000712517 -0.00123971 -6.91692e-323
-0.0023491 0.00409446 -8.39912e-323
-0.00107239 0.0141984 -6.42285e-323
-0.00436489 0.013555 6.42285e-323
-0.000804774 0.00397446 -8.81505e-217
-0.000261 0.00461321 8.39912e-323
0.0030626 0.00320777 8.39912e-323
    <DataArray type="Float64" Name="FParticle" NumberOfComponents="3"/>
0 0 0
0 0 0
0 0 0
0 0 0
0 0 0
0 0 0
0 0 0
0 0 0
0 0 0
0 0 0
0 0 0
0 0 0
0 0 0
0 0 0
0 0 0
0 0 0
0 0 0
0 0 0
0 0 0
0 0 0
    <DataArray type="Float64" Name="FGrav" NumberOfComponents="3"/>
0 0 -102.73
0 0 -102.73
0 0 -102.73
0 0 -102.73
0 0 -102.73
0 0 -102.73
0 0 -102.73
0 0 -102.73
0 0 -102.73
0 0 -102.73
0 0 -102.73
0 0 -102.73
0 0 -102.73
0 0 -102.73
0 0 -102.73
0 0 -102.73
0 0 -102.73
0 0 -102.73
0 0 -102.73
0 0 -102.73
    <DataArray type="Float64" Name="MParticle" NumberOfComponents="3"/>
0 0 0
0 0 0
0 0 0
0 0 0
0 0 0
0 0 0
0 0 0
0 0 0
0 0 0
0 0 0
0 0 0
0 0 0
0 0 0
0 0 0
0 0 0
0 0 0
0 0 0
0 0 0
0 0 0
0 0 0
    <DataArray type="Float64" Name="FWall" NumberOfComponents="3"/>
-19.2458 -36.9881 102.73
9.19952 40.668 102.73
38.4586 16.1075 102.73
-40.8107 -8.54424 102.73
-41.6745 -1.325 102.73
-2.46385 -41.6227 102.73
40.6314 9.36002 102.73
-34.7889 22.9838 102.73
32.8953 25.6206 102.73
-32.4897 -26.1332 102.73
10.2001 40.4287 102.73
32.6919 -25.8796 102.73
15.5854 38.6732 102.73
36.1502 -20.7771 102.73
36.166 20.7494 102.73
41.5771 3.14026 102.73
39.6886 12.7803 102.73
40.8662 8.27485 102.73
41.629 2.35523 102.73
30.1577 -28.7929 102.73
    <DataArray type="Float64" Name="MWall" NumberOfComponents="3"/>
-3.69881 1.92458 0
4.0668 -0.919952 0
1.61075 -3.84586 0
-0.854424 4.08107 0
-0.1325 4.16745 0
-4.16227 0.246385 0
0.936002 -4.06314 0
2.29838 3.47889 0
2.56206 -3.28953 0
-2.61332 3.24897 0
4.04287 -1.02001 0
-2.58796 -3.26919 0
3.86732 -1.55854 0
-2.07771 -3.61502 0
2.07494 -3.6166 0
0.314026 -4.15771 0
1.27803 -3.96886 0
0.827485 -4.08662 0
0.235523 -4.1629 0
-2.87929 -3.01577 0
    <DataArray type="Float64" Name="FHydro" NumberOfComponents="3"/>
0 0 0
0 0 0
0 0 0
0 0 0
0 0 0
0 0 0
0 0 0
0 0 0
0 0 0
0 0 0
0 0 0
0 0 0
0 0 0
0 0 0
0 0 0
0 0 0
0 0 0
0 0 0
0 0 0
0 0 0
    <DataArray type="Float64" Name="FSpringP" NumberOfComponents="3"/>
0 0 0
0 0 0
0 0 0
0 0 0
0 0 0
0 0 0
0 0 0
0 0 0
0 0 0
0 0 0
0 0 0
0 0 0
0 0 0
0 0 0
0 0 0
0 0 0
0 0 0
0 0 0
0 0 0
0 0 0
    <DataArray type="Float64" Name="FSpringW" NumberOfComponents="3"/>
-19.2458 -36.9881 0
9.19952 40.668 0
38.4586 16.1075 0
-40.8107 -8.54424 0
-41.6745 -1.325 0
-2.46385 -41.6227 0
40.6314 9.36002 0
-34.7889 22.9838 0
32.8953 25.6206 0
-32.4897 -26.1332 0
10.2001 40.4287 0
32.6919 -25.8796 0
15.5854 38.6732 0
36.1502 -20.7771 0
36.166 20.7494 0
41.5771 3.14026 0
39.6886 12.7803 0
40.8662 8.27485 0
41.629 2.35523 0
30.1577 -28.7929 0
    <DataArray type="Float64" Name="MRolling" NumberOfComponents="3"/>
-1.82263 0.948364 3.04344e-321
2.00397 -0.453318 -3.04344e-321
0.79372 -1.8951 3.09779e-321
-0.421028 2.011 -3.04344e-321
-0.0652913 2.05356 3.04344e-321
-2.05101 0.121409 3.04344e-321
0.461227 -2.00216 3.09779e-321
1.13256 1.71427 3.04344e-321
1.26249 -1.62096 3.04344e-321
-1.28774 1.60097 3.09779e-321
1.99217 -0.502621 -3.04344e-321
-1.27525 -1.61094 3.09779e-321
1.90567 -0.76799 -3.09779e-321
-1.02382 -1.78134 2.99404e-321
1.02245 -1.78213 3.04344e-321
0.15474 -2.04877 1.82804e-321
0.629765 -1.95571 -1.82804e-321
0.407754 -2.01373 3.21853e-215
0.116057 -2.05132 -3.04344e-321
-1.41881 -1.48606 -3.04344e-321
   </PointData>
   <CellData>
   </CellData>
   <Points>
    <DataArray type="Float64" Name="Points" NumberOfComponents="3"/>
2.16218 2.65178 0.137449
2.26038 1.08815 0.137449
0.993238 1.43425 0.137449
1.86811 2.03202 0.137449
2.70187 2.06752 0.137449
1.83412 1.37558 0.137449
0.933185 1.69966 0.137449
0.983508 2.4325 0.137449
2.4184 2.29269 0.137449
3.3846 2.98276 0.137449
2.55138 3.23226 0.137449
1.0077 2.69202 0.137449
1.70288 1.76231 0.137449
2.14689 1.77946 0.137449
2.8617 2.7911 0.137449
1.45997 2.41156 0.137449
1.51255 2.14297 0.137449
1.27083 2.23509 0.137449
2.25584 2.0185 0.137449
2.44641 1.64593 0.137449
   </Points>
   <Cells>
    <DataArray type="Int64" Name="connectivity" format="ascii">
0
1
2
3
4
5
6
7
8
9
10
11
12
13
14
15
16
17
18
19
    </DataArray>
    <DataArray type="Int64" Name="offsets" format="ascii">
1
2
3
4
5
6
7
8
9
10
11
12
13
14
15
16
17
18
19
20
    </DataArray>
    <DataArray type="Int64" Name="types" format="ascii">
1
1
1
1
1
1
1
1
1
1
1
1
1
1
1
1
1
1
1
1
    </DataArray>
   </Cells>
  </Piece>
 </UnstructuredGrid>
</VTKFile>