<?xml version="1.0"?>
<VTKFile type="UnstructuredGrid" version="0.1" byte_order="LittleEndian" compressor="vtkZLibDataCompressor">
 <UnstructuredGrid GhostLevel="0">
  <Piece NumberOfPoints="20" NumberOfCells="20">
   <PointData>
    <DataArray type="Float64" Name="radius"/>
0.1
0.1
0.1
0.1
0.1
0.1
0.1
0.1
0.1
0.1
0.1
0.1
0.1
0.1
0.1
0.1
0.1
0.1
0.1
0.1
    <DataArray type="Float64" Name="mass"/>
10.472
10.472
10.472
10.472
10.472
10.472
10.472
10.472
10.472
10.472
10.472
10.472
10.472
10.472
10.472
10.472
10.472
10.472
10.472
10.472
    <DataArray type="Float64" Name="particleIndex"/>
0
1
2
3
4
5
6
7
8
9
10
11
12
13
14
15
16
17
18
19
    <DataArray type="Float64" Name="clusterIndex"/>
0
1
2
3
4
5
6
7
8
9
10
11
12
13
14
15
16
17
18
19
    <DataArray type="Float64" Name="v" NumberOfComponents="3"/>
-0.0627992 0.295917 1.00596e-07
0.125786 -0.109984 -0.13868
-0.507561 -0.147439 0.00168054
-0.218172 0.0124318 -0.754355
1.33488 0.284967 -1.10877
-0.567011 -0.917061 -1.59077
-0.85775 -0.254706 -3.71564
-0.883583 -0.125092 -3.59706
0.769423 -0.0246061 -2.96646
1.31374 0.409195 -2.58632
-0.0873206 0.189961 -3.54539
-0.356939 0.018191 -4.1329
-0.120071 -0.0352163 -4.3102
-0.0217738 -0.0201065 -4.35161
-0.0139734 -0.0150743 -4.48667
-0.0015528 -0.00976075 -4.4805
0.00297735 -0.00395062 -4.47544
0.00316617 -4.13174e-05 -4.47158
0.00162921 0.00200545 -4.46899
-0.000483154 0.00290611 -4.46768
    <DataArray type="Float64" Name="w" NumberOfComponents="3"/>
-1.89832 -0.403005 -0.000167715
0.369641 1.39743 -0.386212
1.47187 -5.06667 0.547509
5.69881 -1.38961 -0.565677
-5.84987 12.8867 -0.822146
2.22151 -6.70679 -1.35379
0.195161 -3.90403 -0.354732
-1.91586 3.10605 -0.97504
-1.78038 -4.77162 -0.4017
-2.00631 5.04773 -0.233911
-0.433635 -5.22951 0.157678
1.09106 0.145105 0.700357
-0.129872 1.00977 0.15711
-0.0285334 0.205382 0.0425416
-0.0198741 0.0857438 0.0125483
-0.0329969 0.0384137 0.0100734
-0.02439 0.00647274 0.00843823
-0.0146289 -0.00527404 0.00770205
-0.00575155 -0.0100366 0.00726961
-0.00361881 -0.0107343 0.00718188
    <DataArray type="Float64" Name="FParticle" NumberOfComponents="3"/>
0 0 0
-225 -483.455 -1482.51
-5.30852 -2.46133 -5.85357
5.30852 2.46133 5.85357
225 483.455 1482.51
0 0 0
0 0 0
0 0 0
1676.37 -505.859 -2353.31
0 0 0
-96.2485 146.99 582.613
-1199.76 410.43 850.479
-380.36 -51.5616 920.218
0 0 0
0 0 0
0 0 0
0 0 0
0 0 0
0 0 0
0 0 0
    <DataArray type="Float64" Name="FGrav" NumberOfComponents="3"/>
0 0 -102.73
0 0 -102.73
0 0 -102.73
0 0 -102.73
0 0 -102.73
0 0 -102.73
0 0 -102.73
0 0 -102.73
0 0 -102.73
0 0 -102.73
0 0 -102.73
0 0 -102.73
0 0 -102.73
0 0 -102.73
0 0 -102.73
0 0 -102.73
0 0 -102.73
0 0 -102.73
0 0 -102.73
0 0 -102.73
    <DataArray type="Float64" Name="MParticle" NumberOfComponents="3"/>
0 0 0
-38.6796 42.1668 -7.88047
-0.149938 0.2673 0.0235814
-0.149938 0.2673 0.0235814
-38.6796 42.1668 -7.88047
0 0 0
0 0 0
0 0 0
14.0774 82.087 -7.61712
0 0 0
71.1758 137.893 32.0255
60.2564 92.5478 43.0066
3.15802 36.7414 3.36401
0 0 0
0 0 0
0 0 0
0 0 0
0 0 0
0 0 0
0 0 0
    <DataArray type="Float64" Name="FWall" NumberOfComponents="3"/>
8.52505 -40.1969 102.727
134.01 573.077 2486.82
18.6133 5.97969 103.691
0 0 0
0 0 0
0 0 0
0 0 0
0 0 0
0 0 0
0 0 0
0 0 0
0 0 0
0 0 0
0 0 0
0 0 0
0 0 0
0 0 0
0 0 0
0 0 0
0 0 0
    <DataArray type="Float64" Name="MWall" NumberOfComponents="3"/>
-4.01969 -0.852505 0
57.3077 -13.401 0
0.597969 -1.86133 0
0 0 0
0 0 0
0 0 0
0 0 0
0 0 0
0 0 0
0 0 0
0 0 0
0 0 0
0 0 0
0 0 0
0 0 0
0 0 0
0 0 0
0 0 0
0 0 0
0 0 0
    <DataArray type="Float64" Name="FHydro" NumberOfComponents="3"/>
0 0 0
0 0 0
0 0 0
0 0 0
0 0 0
0 0 0
0 0 0
0 0 0
0 0 0
0 0 0
0 0 0
0 0 0
0 0 0
0 0 0
0 0 0
0 0 0
0 0 0
0 0 0
0 0 0
0 0 0
    <DataArray type="Float64" Name="FSpringP" NumberOfComponents="3"/>
0 0 0
361.41 263.174 -365.715
0.957917 0.785511 -2.81319
-0.957917 -0.785511 2.81319
-361.41 -263.174 365.715
0 0 0
0 0 0
0 0 0
780.095 -107.649 281.618
0 0 0
-234.926 -575.267 -105.474
-176.247 651.051 -174.451
-368.922 31.8649 -1.69329
0 0 0
0 0 0
0 0 0
0 0 0
0 0 0
0 0 0
0 0 0
    <DataArray type="Float64" Name="FSpringW" NumberOfComponents="3"/>
8.52505 -40.1969 0
134.01 573.077 0
18.6133 5.97969 0
0 0 0
0 0 0
0 0 0
0 0 0
0 0 0
0 0 0
0 0 0
0 0 0
0 0 0
0 0 0
0 0 0
0 0 0
0 0 0
0 0 0
0 0 0
0 0 0
0 0 0
    <DataArray type="Float64" Name="MRolling" NumberOfComponents="3"/>
2.00976 0.426662 0.00017756
-16.7021 -39.7047 12.8047
-0.547006 2.00559 -0.221542
-0.0284337 -0.0247348 0.00748816
3.49587 -6.43689 0.243427
0 0 0
0 0 0
0 0 0
9.59321 -9.88999 2.78863
0 0 0
-6.51197 20.5502 -1.77666
-5.65724 -6.90638 -1.84765
2.576 -3.75382 0.83568
0 0 0
0 0 0
0 0 0
0 0 0
0 0 0
0 0 0
0 0 0
   </PointData>
   <CellData>
   </CellData>
   <Points>
    <DataArray type="Float64" Name="Points" NumberOfComponents="3"/>
1.9861 2.1805 0.137449
2.14498 1.91293 0.136699
1.81728 1.90996 0.137443
1.98034 1.99445 0.21656
2.2245 2.01418 0.288149
1.8962 1.87113 0.355102
1.6018 1.8817 0.139283
1.69313 1.93181 0.327745
2.12626 2.01536 0.472574
2.28139 2.07726 0.607932
2.06305 2.04344 0.658389
1.97045 2.01444 0.832587
1.96798 1.99643 1.03165
1.98312 1.99133 1.23111
1.99418 1.99218 1.431
1.99959 1.99545 1.63354
2.00133 1.99832 1.83563
2.00127 2.00009 2.03722
2.00059 2.00098 2.23829
1.9998 2.00132 2.43883
   </Points>
   <Cells>
    <DataArray type="Int64" Name="connectivity" format="ascii">
0
1
2
3
4
5
6
7
8
9
10
11
12
13
14
15
16
17
18
19
    </DataArray>
    <DataArray type="Int64" Name="offsets" format="ascii">
1
2
3
4
5
6
7
8
9
10
11
12
13
14
15
16
17
18
19
20
    </DataArray>
    <DataArray type="Int64" Name="types" format="ascii">
1
1
1
1
1
1
1
1
1
1
1
1
1
1
1
1
1
1
1
1
    </DataArray>
   </Cells>
  </Piece>
 </UnstructuredGrid>
</VTKFile>