<?xml version="1.0"?>
<VTKFile type="UnstructuredGrid" version="0.1" byte_order="LittleEndian" compressor="vtkZLibDataCompressor">
 <UnstructuredGrid GhostLevel="0">
  <Piece NumberOfPoints="1074" NumberOfCells="1074">
   <PointData>
    <DataArray type="Float64" Name="Elongation" NumberOfComponents="3"/>
-3.34011e-05 -5.32906e-05 -6.18459e-06
1.46468e-06 9.81392e-06 -1.94098e-05
0.00125441 0.00198644 -8.44088e-06
4.48364e-05 7.39776e-05 5.94193e-06
5.16507e-06 4.53266e-05 0.000128901
0.00016159 0.000129555 -9.09951e-05
6.49014e-05 0.00010161 7.75299e-06
-1.15806e-05 -2.02778e-05 -5.11389e-05
-1.42895e-05 -9.01861e-06 6.59278e-07
-0.000158221 -0.00011551 -2.58288e-05
-1.23873e-06 -7.22242e-07 3.71357e-07
2.7898e-05 1.81755e-05 -2.21063e-06
0.000457659 0.000486783 -0.000213459
0.00151469 0.00119567 0.00111345
0.000417346 0.000573374 0.000771114
0.000226628 0.000148494 1.59421e-05
-1.91651e-06 8.44411e-07 -6.85507e-06
-1.34835e-05 -1.32831e-05 7.26603e-06
-0.000741025 -0.000521438 0.00162268
-0.00225386 -0.00321598 -0.000502159
-1.22442e-05 -1.41891e-05 3.96881e-07
-3.05207e-05 -7.19541e-05 -5.44808e-05
0.000145572 0.000188476 7.1979e-06
2.30189e-05 2.04552e-05 5.04262e-06
3.17619e-06 6.33811e-06 -6.22946e-06
3.6717e-05 -5.40592e-05 0.000250534
0.000271491 0.000262834 0.000262483
3.64004e-05 4.27672e-05 -2.91189e-07
6.47681e-06 4.54927e-06 1.3193e-05
0.00159013 0.00203933 -5.46542e-06
1.0303e-05 3.70649e-05 -5.01678e-05
-0.000117196 -0.000179595 -4.31086e-05
4.02592e-05 3.89356e-05 3.02286e-05
0.00147203 0.00118411 -0.000260791
0.002594 0.00444002 0.00384708
-6.49779e-05 -2.37283e-05 0.000181673
6.42581e-06 9.06327e-06 -1.35289e-06
5.17169e-05 7.60502e-05 -2.76869e-06
-1.68476e-05 -1.58296e-05 -2.30686e-05
-0.000103112 -0.000167346 -2.74196e-06
0.00072386 0.00113294 3.9976e-05
-0.00112349 -0.00170229 -0.000188545
-3.15536e-05 -5.177e-05 8.62335e-06
0.000320248 0.000487563 -9.0599e-06
0.000438233 0.000602945 0.000114973
4.5186e-05 7.15525e-05 -8.56774e-06
-4.39357e-06 -8.23248e-06 2.99167e-06
-4.39515e-05 -5.05858e-05 1.6085e-05
-7.64174e-05 -2.50066e-05 6.67232e-05
-1.17464e-05 9.89467e-06 1.147e-05
-9.29742e-06 7.71239e-06 4.42712e-05
0.0030281 -0.00235681 -0.00595358
-8.16705e-06 1.41648e-05 -5.13274e-06
-1.42753e-05 2.15686e-05 -1.8984e-06
0.000669445 -0.000365794 -0.000954881
0.00122678 -0.00108625 -0.000448009
0.000340769 -0.000387602 0.000186979
0.000206533 -0.000185854 -2.09725e-05
0.002546 0.00294233 6.45285e-05
-3.08455e-05 -8.20677e-07 8.36418e-05
1.64273e-05 -1.72666e-05 5.84857e-06
3.13601e-05 -2.65477e-05 -6.82672e-06
-8.77996e-06 1.55195e-06 1.93666e-05
1.37095e-05 -1.28188e-05 5.8256e-07
-2.41244e-06 3.32537e-06 -3.81771e-07
0.000301214 0.000635654 0.000271885
9.36937e-05 -0.00012613 -0.000110621
0.000514445 0.000330545 0.000122372
1.35884e-05 -1.25131e-05 1.86224e-07
1.7765e-05 -1.43422e-05 5.84478e-06
1.2281e-05 -1.37327e-05 -6.93127e-06
3.58466e-05 8.27357e-05 4.02986e-05
-7.35532e-05 0.000122194 -0.000408726
0.000330412 0.000293682 -0.00644956
9.98029e-05 4.91614e-05 -2.84789e-05
0.000120166 -0.000488741 0.00075058
0.00280544 -0.00203979 0.00149195
0.000154793 -0.000290929 6.96235e-05
0.000221234 -0.000360579 -1.82052e-05
4.53132e-05 -0.000105194 6.97851e-05
1.31536e-05 -1.45865e-05 -1.54844e-05
0.0016476 -0.000952871 -0.00191822
0.000261767 -0.000412825 9.44118e-05
6.21898e-05 1.29952e-05 0.000213791
0.000109028 -0.000195839 -4.52761e-05
9.73055e-06 -1.52186e-05 1.47982e-06
7.8612e-05 6.99309e-05 -2.17338e-06
0.000334743 -0.000403324 -0.000285845
-0.000425635 0.000234704 -0.000324504
4.19822e-05 8.38071e-05 2.53674e-05
0.000125743 -9.47992e-05 2.54855e-06
0.000103539 -0.000143118 0.000206609
0.000181103 -0.00018183 0.000117724
-2.72374e-06 -5.02063e-06 -8.27383e-07
3.52168e-05 -3.0956e-05 5.02181e-06
-0.00185166 0.0033262 0.00167329
-8.0245e-05 2.96018e-05 -0.000153295
0.000267874 -0.000185896 0.000124835
-3.25801e-05 2.43643e-05 -3.3747e-06
0.000144732 -0.000107295 2.7128e-06
-6.86847e-06 -2.54089e-05 -7.06712e-05
-1.31046e-05 1.05615e-05 -8.18573e-07
-5.93446e-05 5.09896e-05 4.88718e-06
3.13768e-05 -2.62785e-05 -5.95056e-07
-0.000578961 0.000538458 0.000131205
-1.65547e-05 2.48315e-05 -1.23537e-05
0.000107554 -0.000107567 6.83593e-05
-2.3096e-05 1.73965e-05 2.85738e-06
5.69162e-05 -4.98255e-05 1.15779e-05
7.74677e-05 -9.95924e-05 0.000103831
-6.02882e-06 5.08672e-06 1.81336e-06
-0.000286623 0.000298235 2.14839e-05
0.000428604 -0.000599635 -0.000240943
0.000151007 0.00049284 0.00190444
0.000387479 -0.000416143 -0.000331929
8.80599e-06 -6.92683e-06 1.97299e-07
9.48548e-05 -7.05701e-05 2.30607e-05
0.000226493 -0.000207598 6.29869e-07
-8.13108e-05 9.88131e-05 6.94151e-05
-3.58801e-07 8.54214e-07 1.43999e-06
6.80175e-05 5.2897e-05 -4.28711e-05
4.06813e-06 7.42477e-06 -1.66324e-05
5.92347e-05 6.83556e-05 -0.000215954
-7.44685e-06 -2.19344e-05 6.77531e-06
-4.33874e-06 -1.50637e-05 -1.74253e-06
8.53396e-05 -0.000659438 -0.00128302
6.58082e-05 -0.000675064 0.000942432
-0.00164857 0.0155112 0.00348881
5.66641e-05 7.53588e-05 4.37606e-05
9.13861e-05 5.37544e-05 -3.23619e-06
0.000137248 0.000134435 -3.13434e-05
-1.2671e-05 -5.4278e-06 -3.14363e-05
4.87155e-06 -1.13321e-05 1.08275e-05
8.80749e-05 0.000151834 0.000184808
1.14163e-05 2.32795e-06 -1.95096e-06
-1.58272e-06 -3.20405e-06 5.21602e-06
1.96657e-08 3.56596e-09 2.3965e-06
3.7518e-06 -1.02273e-05 5.29986e-05
1.51495e-05 1.58308e-05 8.40934e-06
-2.49632e-05 2.49186e-07 -3.24223e-05
1.20873e-05 2.45171e-05 5.19665e-05
-1.41938e-06 6.83026e-06 -4.85615e-06
-8.20504e-05 2.68888e-05 -5.81972e-06
-3.56509e-06 -4.36178e-05 8.01805e-05
1.88918e-05 -9.90336e-06 -4.14578e-05
0.000142519 2.89355e-05 -0.000107026
-0.000297053 -0.000484381 0.00310275
0.000754213 -0.000129676 0.000138946
0.000242745 -0.000499348 -0.000983592
-0.000898835 -0.000616588 -0.00206621
8.46222e-05 2.48229e-05 -0.00010087
-6.8505e-06 -5.85218e-06 2.1154e-05
-6.63596e-07 -5.7082e-07 -6.5992e-07
1.49484e-05 1.83206e-05 -0.000957038
0.000184766 0.000187431 1.18182e-05
-6.18248e-05 0.000216251 0.0016897
5.51478e-06 -9.33141e-06 3.29413e-06
0.000312023 0.000504606 0.000355019
-0.000183244 2.52444e-05 -5.46077e-06
-4.57791e-05 -4.77339e-05 -1.21588e-05
3.36636e-05 3.38357e-05 -5.65754e-06
5.27125e-05 5.355e-05 7.42967e-05
-8.55851e-05 -9.15349e-05 5.02338e-05
2.03718e-05 9.69971e-06 -3.22259e-05
-0.000545137 0.000463301 0.000203646
0.00432005 0.00267182 0.0064878
0.000385968 0.00265491 0.00102232
-0.000417203 -0.000337965 -0.000757555
0.00366403 0.00413507 -0.00592679
0.000604192 -0.000903902 -0.000360616
0.00498579 0.00629011 -0.000571874
-4.51205e-06 0.000132663 5.03153e-05
0.000458545 -0.000122478 0.000559646
-0.00253843 0.000508309 -0.00036993
4.86408e-05 -4.45117e-05 -5.78576e-05
-6.46718e-05 4.34185e-05 -0.000175447
0.00117313 -0.00157051 -0.000430998
-0.00228739 -0.00297958 0.00112958
-0.00011773 0.000124688 -3.86716e-05
0.00199653 -0.0020202 4.03936e-05
-0.000209553 -3.64335e-05 -0.000264519
-0.000565398 0.000304702 -0.000207373
6.30125e-05 -5.87253e-05 6.94458e-06
1.97638e-06 1.97215e-06 -6.9023e-07
-6.47903e-05 4.14754e-05 -2.44317e-06
5.23647e-05 5.3239e-05 -3.06431e-05
1.36371e-05 -7.43201e-05 -5.23602e-05
-8.85573e-05 -0.00016535 -5.63387e-06
-1.80461e-06 6.10718e-06 -6.02567e-06
3.60156e-05 1.13108e-05 1.31247e-05
2.40254e-05 -5.25352e-05 -2.34402e-06
-7.05352e-05 0.000189328 -9.52088e-05
-9.54698e-05 -0.000208607 0.000177355
4.86754e-05 -2.02892e-05 -1.96182e-05
8.39695e-05 8.25297e-05 7.35512e-06
0.000290702 0.000315646 0.000332389
-0.000143931 0.000316672 6.97238e-05
0.00568734 -0.000226725 -0.00251738
-0.000157589 -0.00160981 -0.00290571
0.00147135 0.000985761 -0.00114424
-0.000502218 -1.1257e-05 -0.000173686
0.000108569 -4.91125e-06 -2.80177e-05
-0.000210813 -0.000128587 -0.000120572
8.22506e-05 -0.00039893 -0.000128959
0.000241337 0.000277178 -0.000179187
-0.000183566 -0.000342498 0.00606771
1.10092e-05 -0.000106228 -0.000847011
0.000864029 0.00154862 0.000528346
-0.00239983 0.00281977 -0.00402655
-0.000659879 -7.31922e-05 0.000211364
-8.32986e-05 -0.00090461 0.000880177
0.00037823 -9.69083e-05 0.000345886
-0.000333079 0.000179545 6.04175e-05
0.00343763 0.00318692 0.00243563
7.35735e-05 -1.4079e-05 0.000198616
-0.00176659 -0.000903091 -5.44785e-05
5.59318e-06 -3.13778e-05 -0.00454411
-0.00371649 0.00282917 -8.08588e-05
-0.000417322 -0.000260753 -0.0011469
0.00224441 -0.00321115 0.00623885
-0.00108859 -0.000827893 0.000694829
-0.000694081 -0.000226394 -0.000115151
0.00125195 -0.000944465 0.000544991
-0.00301097 -0.000923729 -0.00101537
-0.000782702 0.00081868 -0.000339876
5.6881e-05 0.000187347 0.000167043
0.00108815 -0.000735825 -0.000495831
-8.3654e-06 -3.3818e-07 -2.19697e-05
3.27671e-05 -6.44839e-05 -6.64971e-05
1.70334e-05 -1.04606e-05 4.03616e-05
4.32988e-05 -2.92047e-05 -6.55444e-05
4.18552e-05 -6.57181e-06 -2.30737e-05
1.54867e-06 6.18281e-05 -6.51237e-05
-8.01123e-06 8.94544e-06 4.20446e-05
-9.19764e-05 -9.5296e-06 -8.47866e-05
-0.000585069 -5.42685e-05 -0.000458368
0.000180007 -0.00017781 -0.000154876
2.29146e-05 -2.27819e-05 8.93786e-05
-4.13399e-05 0.000135912 7.48281e-05
-1.5349e-05 9.80172e-06 1.30053e-05
0.000157505 -0.000105608 -8.5205e-05
6.87975e-06 1.52556e-06 1.85319e-05
-2.97504e-05 0.00012553 8.47295e-05
-7.50004e-05 -0.000158184 9.29136e-05
0.000148618 -0.000293711 -7.2655e-05
-8.60389e-05 -4.08035e-05 -7.57501e-05
2.34368e-05 0.000100348 -4.58231e-06
-9.42444e-05 -8.13132e-05 -3.15981e-05
-0.000249874 0.000402011 0.00026626
0.00257144 -0.00189305 -0.00797126
-0.00081751 -0.000145887 0.000694159
0.000447692 -6.9245e-06 0.000406918
0.0023949 -0.00541075 -0.00599175
-3.08861e-05 0.000110944 -0.000119691
0.000984217 -0.000301031 0.000239572
-0.000153266 -0.000174193 -7.58093e-05
-0.000721777 -0.00106628 -0.000130799
0.000715446 0.00072929 -0.000251536
-0.000538558 -0.000231615 0.000225888
-0.000159816 7.07288e-05 0.000103645
-0.000235392 -0.00884177 0.00375111
0.000104425 9.82325e-05 0.00031278
-0.0028059 0.000729849 0.00219661
-0.00682355 0.00187307 -0.00345212
0.00149869 0.000191188 -0.00036883
-0.00431071 -0.000752311 0.000534123
0.000521385 3.41677e-05 -0.000493178
0.00164155 0.000927165 0.000463555
0.000119528 -1.17794e-05 6.67591e-05
0.00013895 8.6482e-05 8.55549e-07
-3.2303e-05 3.00696e-05 9.65517e-06
-3.45212e-06 1.32342e-05 -5.10636e-06
-1.84624e-05 -1.29423e-05 1.009e-05
-2.74162e-05 -7.2197e-06 3.54674e-05
-6.40315e-05 -2.0593e-05 0.000100268
2.32691e-05 -7.73e-05 -0.00012253
2.36583e-05 9.23679e-06 9.48696e-06
5.76394e-06 -4.37469e-05 3.40021e-05
7.47734e-06 2.71651e-06 1.09865e-05
4.89024e-06 4.62585e-06 8.38348e-06
-1.88503e-05 1.87859e-05 -2.83526e-05
-0.000372125 0.000363217 3.5036e-05
3.00074e-06 3.0013e-06 6.89471e-06
-7.41707e-06 2.26258e-05 4.86737e-06
3.00652e-05 2.30295e-05 2.00463e-05
1.62056e-06 -2.32895e-06 6.0974e-06
1.46509e-05 2.4874e-05 5.66241e-05
2.50357e-05 -5.81482e-06 3.5133e-05
-2.24716e-05 9.49106e-06 1.01643e-05
2.54063e-06 -2.37387e-06 3.11245e-05
-4.66935e-05 0.0002478 0.00023264
6.12544e-06 7.89601e-05 4.1374e-05
-1.02261e-05 8.50889e-05 -6.09606e-05
-1.43705e-05 5.90229e-05 -3.58963e-05
0.000607871 -0.000219652 -1.83414e-05
0.000173783 0.000361136 0.000240703
0.000120052 7.18786e-05 0.000106103
-9.84917e-06 -8.42456e-05 8.59051e-06
4.59293e-07 -1.91698e-07 -6.67706e-07
5.55476e-05 3.43821e-05 1.10715e-05
4.51209e-07 -3.66885e-06 8.26975e-06
0.000100829 -2.85498e-05 -3.44318e-05
7.24159e-06 8.50882e-06 2.11891e-06
-0.000235611 0.000208259 -6.23223e-06
0.000736157 0.000275776 0.00038726
-0.00042781 0.00287433 -0.000639343
0.000122615 1.93302e-05 0.000332442
-0.000852079 -0.00155121 0.00261926
-0.000105954 -4.66887e-05 -3.12475e-05
-0.000196763 8.18696e-05 -0.000130972
9.0686e-05 -0.000116648 -0.000186562
-0.000641835 0.000169673 2.51479e-05
-0.000424469 -0.000571988 -0.000157779
0.000384556 -6.17783e-06 0.000218177
9.7668e-05 -0.00087841 -0.000310564
-0.00136982 0.00387891 0.00135942
6.63907e-05 0.000794174 0.000306753
0.00012011 3.98688e-05 0.000164318
-0.00161935 0.000963087 -0.00315106
-0.000707773 -0.00048058 0.000221129
0.000473671 0.00152283 -0.000347955
0.00135821 -0.00156194 0.00116805
-0.000374367 5.07499e-05 -3.28421e-05
-7.81071e-05 -7.54207e-05 -0.000239153
0.000410262 0.000153273 -1.72607e-05
-0.000129434 -1.61336e-05 0.000193707
-1.5163e-05 -1.98825e-05 8.66017e-05
-1.23646e-05 -1.59322e-05 -1.27797e-05
6.95122e-05 -8.04834e-06 5.08506e-05
1.648e-05 -1.30637e-06 4.55508e-06
1.28354e-06 -1.4134e-05 -1.15965e-05
0.000540238 -4.48157e-05 4.00931e-06
-3.4119e-05 1.08915e-06 -5.86399e-08
2.07032e-05 -2.22863e-05 1.94305e-05
-1.68655e-05 4.7046e-05 1.34429e-05
-0.00011301 9.26719e-07 -3.07628e-05
-0.000119668 -8.29548e-05 8.95502e-05
2.2183e-06 -6.5744e-06 3.7319e-06
-1.41575e-05 -4.04063e-05 5.3339e-06
-0.000395731 -0.000130179 0.000111966
0.000161709 -0.000127218 0.000152841
-5.21325e-05 -7.5079e-05 -2.51606e-05
-3.83664e-06 1.54278e-05 8.26252e-06
-3.11917e-05 -6.40356e-06 2.62885e-05
2.14588e-05 -8.15567e-05 0.000107439
1.7093e-05 -1.99876e-05 -1.63343e-05
8.23914e-05 0.000344677 0.000259378
6.41836e-05 -4.15813e-05 8.01107e-05
-6.49119e-05 0.000188128 -3.9461e-05
2.052e-06 -1.21713e-05 1.20275e-05
0.000213279 0.000136992 -1.35613e-05
-9.3091e-07 -2.46584e-06 2.33209e-06
-6.57912e-06 -2.96542e-05 -4.14029e-06
1.7708e-05 2.55968e-05 2.8414e-05
-0.000251714 6.16665e-05 -0.000279763
9.51152e-06 -1.12359e-05 2.04638e-05
8.04294e-06 -0.000164359 -6.5059e-05
4.57404e-05 2.90891e-05 -1.66452e-05
0.00048323 -2.92139e-06 -0.000313161
-1.06141e-05 -5.85785e-05 8.96339e-05
0.00105289 -0.000340638 0.00016003
0.000459367 -0.000169293 0.000153882
9.44205e-05 -7.9104e-05 5.58673e-06
0.000242938 0.000300352 -0.000159618
0.000442598 0.000444299 -0.00015491
-2.90432e-05 -3.4192e-05 0.000216515
0.000307899 0.000432984 0.00021189
0.000680574 3.72971e-05 -0.00023963
0.000176034 -0.000136014 9.441e-05
-0.000694967 -0.000475105 -0.000344484
6.39147e-05 7.84237e-05 0.000338405
1.0422e-05 -5.70268e-05 5.01962e-05
-9.66481e-06 1.10652e-05 -6.56474e-06
-0.00019976 6.28699e-05 7.6593e-05
3.4984e-05 -4.3584e-05 -3.10419e-05
-0.000241648 -1.17371e-05 -0.000152023
2.27101e-06 -3.46345e-05 5.09945e-06
4.99951e-05 2.91227e-05 -0.000651762
-4.65786e-06 1.48769e-06 1.03879e-06
7.26244e-05 -0.0001039 2.66529e-05
-2.18671e-06 -1.65478e-05 -9.36869e-06
0.000263633 -0.000107286 -0.000176628
2.09151e-06 2.85858e-05 2.83489e-05
-8.84433e-05 7.1435e-05 -9.93304e-05
-4.27152e-05 -1.38387e-05 3.18365e-05
-2.69511e-05 -2.51832e-05 -9.36238e-05
0.000123711 -6.46844e-05 -2.48773e-05
-8.79548e-06 -1.42729e-05 -4.3663e-06
0.000162279 0.000138942 -8.98119e-06
0.000316534 0.00031634 4.33012e-05
5.9624e-05 5.86703e-05 -1.139e-05
0.00045267 -0.00187379 -0.000221598
-0.000396916 0.000357376 -0.000312783
0.00123488 -0.00113004 -0.00410172
0.00214883 0.0045602 -0.00455878
-0.00127826 -0.000659521 0.000631503
0.000618119 0.00136932 -0.00111545
-0.000575253 0.00191271 -0.00187971
0.00420511 0.00482358 0.000372726
-7.61763e-05 0.000413977 -5.90556e-05
-0.000574862 -0.000429056 3.3105e-06
-0.0138172 -0.00300339 0.00152884
0.000576174 -0.000416111 4.85487e-07
-0.000291858 0.000382425 5.49628e-06
-0.0023215 -0.00436384 -0.000810005
-0.00273059 -0.000572343 0.00689053
0.000173077 -0.000207869 -0.00026756
-0.000123662 0.000152931 0.000209344
-1.05164e-05 -2.32184e-05 -3.59247e-06
-2.15842e-05 1.67831e-05 3.6553e-05
2.57297e-05 2.71121e-05 -2.23705e-07
-0.000309932 0.000109545 -3.92151e-05
-1.10996e-05 -1.80972e-05 1.90684e-05
-0.000120327 -0.000121307 5.85638e-06
0.000587924 -0.000441684 -0.000343698
-0.000381485 -0.000240412 -0.000262503
-3.90877e-06 3.81927e-06 -1.01728e-06
-7.79856e-06 -7.75461e-06 -1.81433e-06
4.93867e-05 4.88157e-05 -2.06311e-05
0.000106719 -4.6438e-05 9.72033e-06
-0.000502341 -0.00172121 0.00139261
0.000462709 -0.000868628 -0.00180945
0.000125178 -0.000319248 -0.000108504
-0.000124765 -0.000330998 -4.50622e-05
0.000341554 0.000834979 0.000574872
0.000151273 -2.68866e-05 5.72117e-05
-0.000248551 -0.000142612 0.0045648
0.000675909 -0.00132144 -0.00121856
0.00024123 0.00015296 0.000223742
0.000158246 -4.18175e-05 0.000803387
0.000416687 -0.000400328 0.000193779
-0.00763885 0.0111976 0.00210528
0.00187868 0.00175108 -0.00137529
0.000150879 -5.05532e-05 -0.000243901
8.63087e-07 -5.38945e-06 1.27161e-05
9.28057e-05 0.000177522 -0.000307854
0.000740179 -0.000168146 -6.55109e-05
-7.31598e-05 -0.00124015 -0.000394057
-0.0008923 -0.000890217 -0.00292902
-0.000323809 4.22451e-05 -0.000344815
0.00153552 2.1696e-05 -0.000120365
-0.00542224 -0.00175916 0.00167987
7.51447e-05 0.000170963 7.81483e-05
-0.00154873 -0.00487358 -0.000265015
-0.000101426 4.15937e-05 -0.00031115
-0.00239823 0.000154437 0.00166597
0.000297557 0.000137792 0.000127405
-5.73974e-05 0.000119617 0.000192854
3.98208e-05 -0.0011909 -0.000270052
-0.00143994 -0.000526983 -0.000400648
0.000608637 -0.000605606 -0.000113282
0.000649206 0.000746457 -0.00050237
1.89355e-05 4.73995e-06 -3.41823e-05
-5.27585e-05 -0.000363285 0.000223773
7.04033e-05 5.38227e-05 -1.36271e-05
0.000935988 -0.000272583 0.000464136
0.000355413 0.000209928 0.000219175
-0.000274791 -0.000536053 0.000997375
0.000134156 -0.000397838 9.05913e-05
-0.000142672 -0.000124409 -0.000363738
-2.87409e-05 2.9011e-05 3.58577e-06
-2.60902e-05 6.84343e-05 0.000108
4.85921e-05 4.85803e-05 2.14792e-06
-7.37722e-05 -7.33531e-05 1.26148e-07
-0.000115338 0.000101623 4.55962e-05
1.47843e-05 -3.46231e-06 2.17654e-06
0.000126093 -0.000121635 -3.01775e-05
-3.6968e-05 8.83725e-05 4.83687e-06
1.36571e-05 -4.51298e-05 -5.67467e-05
7.99168e-05 0.000117466 -8.01398e-05
7.7686e-05 -0.000190917 -4.4021e-05
4.37597e-05 0.000155209 4.3805e-05
-2.83062e-05 -4.59174e-05 2.01071e-05
7.14274e-05 2.56368e-05 -1.27824e-05
-3.96316e-05 0.000102389 -5.74327e-06
-0.000189538 -0.0006246 -3.00788e-05
0.000279482 0.000363338 0.000276524
-0.00112591 9.57951e-05 0.000187082
-0.000773963 0.00284838 0.00105492
-0.000384371 -0.000416812 -0.000871325
4.02077e-05 -0.000299807 -0.000224746
-7.6665e-05 -7.11198e-06 -7.39856e-05
0.000106034 8.84223e-06 0.000216427
1.68944e-05 -6.89865e-05 9.13754e-05
7.03243e-05 -1.83115e-05 -1.74518e-05
4.26769e-05 0.000387785 0.00169783
1.63098e-06 -1.55271e-06 -1.49872e-06
5.99134e-05 3.17522e-05 -2.57344e-05
8.94016e-05 0.000418227 -0.00133458
-0.000165585 -0.000812387 0.00218962
0.0037407 0.00254237 -0.00385704
-0.00804919 0.0018214 -0.00153691
-0.000690272 -0.00212654 -0.00162761
-0.000308977 0.00146128 0.000722201
0.000437781 -0.00045361 -0.000771148
0.000387935 7.05587e-05 0.000203166
0.00307516 0.00155745 -0.00337825
0.000641005 -0.000328826 0.000359348
3.52803e-05 0.000102841 0.000354253
-0.00362643 0.00106284 -0.00714248
-0.000289442 -1.87263e-05 -3.28493e-05
0.000605544 -0.00031152 0.000370287
-9.38159e-05 0.000221253 -8.67682e-05
-8.81206e-05 2.51825e-05 8.65136e-05
8.18412e-05 -8.79038e-05 -3.23684e-05
8.83583e-06 -1.55381e-05 -3.36966e-05
-9.2274e-06 2.81882e-05 5.61397e-05
-2.9543e-05 -2.42043e-05 3.84854e-05
0.000183082 0.000151619 9.3532e-06
-4.7044e-05 -1.21772e-05 1.70637e-06
-5.75769e-05 -2.01522e-05 5.81123e-05
-5.38462e-05 8.56597e-05 0.000100973
-5.96856e-05 3.39777e-05 6.98559e-05
-0.000111348 0.000110739 4.49597e-05
6.30023e-06 -3.94963e-06 4.84071e-06
-0.00021427 5.57111e-05 -2.51367e-05
-4.86602e-05 -5.37307e-05 -1.30157e-05
6.45912e-07 -6.79232e-06 1.01086e-05
-4.95856e-05 7.82868e-05 -3.42006e-05
-6.08537e-05 -8.02951e-05 -4.4367e-05
-0.000101847 0.000261378 2.58525e-05
-2.29834e-05 -0.000143162 -0.000149236
-0.000337785 6.68403e-05 -2.90574e-05
-6.0833e-05 7.33569e-06 -6.56854e-05
-6.19377e-05 -0.000111371 -1.61361e-05
-6.75934e-06 -1.41341e-06 0.000205728
0.000774263 -5.21025e-05 0.000850086
-1.07804e-07 7.51788e-05 1.94402e-06
-2.71851e-05 5.66745e-05 -4.64333e-05
-8.96369e-06 3.44569e-06 -1.89336e-06
-8.39278e-05 0.000167907 -2.14906e-05
-1.30572e-05 -1.0137e-05 2.70722e-06
-6.69885e-05 -2.63914e-05 9.18901e-06
-0.000236267 0.000243689 -0.000308154
-0.000260921 -0.000172618 0.000187953
-3.3391e-05 -5.80957e-05 -5.30143e-05
0.00299845 0.00158455 0.00124573
-0.00036087 0.0029746 0.00192784
0.00218083 -0.000495664 -0.000183406
-4.66569e-05 -2.23708e-05 -6.28089e-05
-0.00106269 0.000165122 9.7675e-06
-0.00160735 -0.00113255 -0.00142936
-4.61763e-07 4.02128e-05 -5.09944e-05
3.01513e-05 4.79203e-05 -3.18511e-05
5.82172e-07 4.22001e-07 -2.93329e-05
1.60294e-05 6.29832e-06 -4.6678e-05
0.000623477 0.000197702 -0.00045961
0.000110681 -0.000214757 -6.45767e-05
-3.40462e-06 -3.60484e-07 9.20121e-06
1.68986e-05 -0.000129167 0.000154526
-0.000203862 0.000308692 -0.000286299
4.6981e-05 3.98522e-05 -4.09958e-06
-1.66094e-05 9.53882e-05 1.16691e-05
3.37097e-05 -3.20227e-05 -1.48439e-05
-6.93727e-05 0.000101681 -5.50614e-06
-1.29783e-05 -9.05873e-06 -3.4509e-05
-2.3559e-05 -2.11015e-05 4.3653e-05
-2.8753e-05 -1.30178e-06 -7.3745e-06
4.65646e-06 6.16517e-07 1.10576e-05
-1.40852e-06 -1.0259e-06 -1.68353e-06
-1.57415e-05 -8.88477e-07 4.97046e-05
-2.17685e-05 -1.71589e-05 -1.13432e-05
8.43569e-05 4.43642e-05 -0.000111352
5.5755e-05 6.38917e-05 -4.39613e-05
-4.21072e-05 -5.52133e-05 -1.04861e-06
-4.06267e-05 -3.17412e-05 9.0058e-06
3.1076e-05 -3.05811e-05 6.91604e-06
-5.07644e-05 -2.73167e-05 9.75587e-05
-2.73734e-05 5.02771e-05 -1.54319e-06
3.14942e-05 1.18825e-05 -7.51039e-05
8.51048e-06 -4.155e-06 9.86707e-06
0.000167708 -0.000217027 9.00341e-05
-3.23397e-05 9.62284e-05 7.7618e-05
-7.78738e-07 -6.26053e-06 6.92492e-06
-4.24874e-05 -7.67054e-06 -5.35251e-05
-3.48943e-05 3.27098e-05 -1.21959e-06
8.06235e-07 -1.39867e-05 5.46858e-06
-0.000205637 -1.50553e-05 0.000355744
3.66693e-05 -4.48947e-05 -3.64331e-05
1.42303e-05 0.000132417 0.000278532
-7.45936e-05 3.32681e-05 -1.46849e-05
-1.99511e-05 -1.27697e-05 1.15841e-05
0.000191938 -2.63492e-05 -1.87508e-05
-0.000176542 0.000104933 -0.00013493
3.0468e-05 -9.52062e-06 -4.70233e-05
1.53619e-05 -1.79308e-05 2.31596e-06
-6.19008e-06 3.94549e-05 2.71871e-05
2.79294e-06 6.18214e-06 7.94455e-06
3.20931e-05 4.36544e-05 1.27608e-05
0.000328725 0.000226516 9.84158e-05
5.84669e-05 -8.04614e-05 -6.93487e-05
-0.000149378 -0.00148813 0.00106549
-1.88202e-05 3.55832e-05 -4.27055e-06
-1.40689e-05 2.10309e-05 -2.77237e-06
-2.90542e-05 0.000137471 8.90399e-05
-2.03959e-05 -2.28557e-05 1.18017e-05
-2.47457e-06 8.2493e-05 -3.41056e-05
-5.02535e-05 -0.000100075 3.58279e-05
0.000199265 -6.41392e-06 4.11715e-05
0.000150776 0.000108793 -0.000164731
0.000308269 -0.000162404 0.000222823
-3.4849e-05 -0.000103067 1.35329e-05
-0.000364544 0.000139351 6.99245e-05
-0.000117466 4.67318e-05 1.02498e-05
-1.75455e-05 0.000313855 7.92981e-06
1.06037e-05 -8.72315e-06 0.000212758
3.43404e-06 0.000307881 -9.73616e-06
8.18273e-05 0.00010097 -9.88413e-05
-0.000272679 -0.000412262 -0.00029957
2.71722e-05 -2.56376e-05 2.35412e-05
0.000130678 0.000286783 -0.000116809
0.000223837 4.30124e-05 0.00031312
2.27732e-05 -2.43229e-05 -2.28303e-05
-0.000127455 0.000430925 0.000882111
3.18595e-05 3.17305e-05 -1.47253e-05
0.000193374 -0.000106261 0.000313587
-5.36545e-05 8.77702e-05 3.41587e-05
-7.55605e-06 -6.9711e-06 -1.47096e-07
-3.37694e-05 1.00366e-05 -1.08001e-05
0.000290319 -2.25775e-05 0.000128998
-4.56806e-06 2.67617e-06 2.18704e-05
1.25491e-05 1.60234e-05 9.87969e-06
0.000983128 -0.000682696 -0.000502959
-3.15901e-05 -7.58027e-06 3.83179e-05
4.33189e-05 -8.65905e-05 -6.76467e-05
-4.84604e-05 5.8231e-05 4.18219e-05
1.35463e-06 9.05122e-06 1.20556e-05
5.03998e-06 -1.16271e-05 -7.93925e-06
-2.56926e-05 7.79195e-06 1.28626e-05
-0.000139435 0.000361725 -9.91962e-05
-0.000825085 0.000439115 0.000296451
6.73544e-06 -6.00398e-05 2.71215e-05
0.000154251 0.000142291 -2.13092e-05
-0.000796317 -0.000746676 -0.000870136
0.00174383 -0.00323789 0.0011086
0.00297694 0.00383472 0.0034293
-0.00303241 0.00131995 -0.000350158
-7.65299e-06 -7.93426e-06 2.39151e-06
-6.95835e-05 -9.06626e-05 -0.00244763
2.01302e-05 0.000314116 0.000208411
-0.000284676 0.000105756 0.000357945
-0.000349704 0.000297522 -0.000765108
0.000284031 -0.000137452 -1.56622e-05
-0.000961242 -0.000498101 -7.02985e-05
0.00104094 -0.000915139 0.000550671
-0.00483774 0.00190689 -2.71813e-05
-0.00125466 -0.000756829 0.000131124
-7.61881e-05 9.81662e-05 0.00147864
1.30441e-05 -0.00010198 -1.59025e-06
8.32545e-05 6.26348e-05 3.00645e-06
-0.00120128 0.00134342 0.000117552
-1.3222e-05 1.1996e-05 5.87081e-06
4.99612e-05 -9.80175e-06 1.42229e-05
-6.96418e-05 6.88261e-05 -7.39692e-06
5.68972e-05 -5.68809e-05 -0.000145518
-0.000123659 -9.37755e-05 8.17405e-05
3.25554e-05 -1.17142e-05 0.000110494
5.64238e-05 5.64531e-05 4.6181e-05
-6.11411e-05 5.14381e-05 -4.87471e-05
9.44703e-05 -5.49848e-05 -0.000113969
7.70909e-05 -5.2589e-05 -8.41193e-05
0.00011561 0.00012556 -9.92999e-05
0.000183901 -0.000795373 -0.000397356
-1.41587e-05 3.15364e-05 -0.000106224
-7.84908e-05 -9.20781e-05 4.77534e-05
7.32563e-06 -9.90413e-06 7.23275e-06
-0.000605841 0.000473439 0.000382852
-0.000380792 0.000143274 7.47764e-05
-0.000188337 -0.000171638 0.000791325
0.000664 0.000243038 0.000123504
-0.000167156 -5.88084e-05 0.0032109
0.00103972 0.000164953 0.000415537
-1.79065e-05 9.23506e-05 5.83957e-05
0.000190592 0.00049151 -0.000428315
0.000480345 -0.000370468 -0.000877005
0.000230533 -0.000253083 -2.66676e-05
-0.000931822 -0.00126271 -0.00102102
0.000486666 0.0004874 -0.00222207
0.00167533 0.00165598 -0.000578002
-0.00027005 3.05313e-05 0.000145998
-0.003252 -0.000111299 -0.00177311
-9.46131e-05 -6.6125e-05 4.361e-05
-1.05081e-05 -0.000318456 0.005416
-0.00124042 -0.000200535 0.000600668
-5.65158e-06 0.00773653 0.00116706
-0.00102575 -0.000964138 -0.000694686
-0.0072578 0.00189023 -0.00640729
-0.00165412 -0.00276965 -0.00029925
0.000579669 -0.000616256 0.00082892
0.000169139 -0.000170456 2.20822e-05
0.00198623 0.000355793 -0.000302143
6.13842e-06 -7.43519e-06 1.68199e-05
3.30883e-05 9.67569e-05 2.3719e-05
1.10926e-05 -1.08883e-05 -7.41789e-06
0.00554413 0.00417804 -0.00116444
0.000150174 -9.0342e-05 -0.00627678
0.000176438 0.000362578 0.000710686
-0.000174584 0.000169452 0.000114824
-4.26202e-05 4.32622e-05 4.78078e-05
0.00385033 0.00187183 0.00404364
-0.000107995 -4.54734e-05 -1.49269e-05
0.00145504 0.000548894 5.42277e-05
-1.20702e-05 1.11818e-05 3.733e-05
0.000376599 3.98566e-05 3.67905e-05
-0.000419529 0.000417843 6.67929e-05
0.000152085 5.88359e-05 3.31469e-06
-4.97467e-05 4.51214e-05 1.33289e-05
8.58763e-05 -8.57923e-05 4.2872e-05
2.11592e-05 2.01502e-05 1.49907e-05
-7.62742e-07 3.74403e-06 -8.95725e-06
-6.19944e-05 -1.94283e-05 8.7531e-05
-8.32673e-07 -2.12287e-06 6.61675e-06
-9.12292e-06 5.4615e-05 -9.42556e-05
1.12733e-05 3.90658e-05 5.73645e-06
8.03574e-06 8.45724e-06 0.000104844
0.000381186 -5.2404e-05 3.94249e-05
-0.000149571 2.16717e-05 -6.49052e-05
0.000323967 -0.00017571 -0.000224824
-0.000221072 0.000880597 -0.00165117
9.00644e-06 0.000585339 -0.00193525
4.59001e-05 8.15138e-06 2.44478e-05
2.98154e-05 -9.11377e-06 -1.40171e-05
9.53545e-05 0.00022199 0.000117858
1.59229e-05 1.47723e-05 1.61865e-05
0.00133185 -0.00106131 -0.000167013
9.97143e-05 -3.71511e-05 0.000141433
-0.000307535 0.000152451 -0.000340307
6.73096e-05 -0.000298442 -0.000165255
3.86879e-05 -1.35887e-05 1.19799e-06
-0.000234966 -0.000147549 0.000132627
-0.00106811 -0.000948778 0.000271348
-0.00128389 -0.000925284 0.000542804
0.0012211 -0.000803477 -0.000388916
8.58999e-05 -0.000456911 -0.00117456
-0.00371276 0.00212043 -0.000241617
-6.85097e-06 -6.3624e-06 -3.31695e-06
-0.000354542 -1.0823e-05 5.91825e-06
0.00211946 -0.00281984 -0.00418573
3.89797e-05 -0.000139377 0.000204872
-9.01841e-05 6.75192e-05 0.00042014
-0.00524082 0.0088774 -0.00199013
0.000222011 -0.000611549 -0.000383418
-0.00209759 -0.00155766 -0.00361181
-0.000510657 -5.93008e-05 0.000910799
-0.00360271 -0.00125585 -0.00260012
0.000221545 0.000552234 -0.00549269
3.16832e-05 1.81749e-05 -1.09743e-05
-3.59269e-05 2.32122e-05 -0.000104756
0.00237108 0.00290215 4.09224e-05
-3.39164e-05 -8.94245e-05 3.13433e-05
-9.82786e-05 -3.09723e-06 -0.00038817
0.0006059 0.000592148 -0.00434526
4.99109e-06 5.66463e-07 -3.07219e-05
-0.000457386 -0.000101446 2.75042e-05
-0.00018893 -0.000172998 -0.00012891
-2.47211e-07 -9.23586e-08 4.32867e-07
-1.81833e-05 2.17752e-05 -5.19268e-05
-4.71497e-05 4.48691e-05 -3.6096e-05
-9.94672e-05 -0.000253711 2.60417e-05
7.80139e-05 -1.18666e-05 -1.60102e-05
-3.04384e-05 3.86728e-05 8.72065e-06
-5.21838e-06 -2.79731e-07 -3.80614e-07
-0.000183146 -0.000453199 5.83755e-05
-0.000303134 0.000263035 -4.7862e-05
0.000468246 0.000187968 8.42481e-05
-0.000153593 0.000154784 -2.71972e-05
7.43581e-08 -8.29922e-07 -1.10382e-05
-1.44352e-05 2.02759e-05 2.09789e-05
-2.63497e-05 -1.46278e-05 9.81607e-06
-3.20962e-05 2.22485e-05 6.07324e-06
0.000304529 0.000287486 -0.000119667
1.08684e-05 -4.62384e-07 -8.8721e-06
5.87418e-06 -4.97554e-07 9.25297e-06
4.17217e-07 -1.17376e-06 5.40232e-07
2.69103e-05 1.44428e-05 -4.60517e-06
3.18377e-05 8.93576e-05 -9.01781e-05
-0.000238496 1.62911e-06 -1.98997e-07
7.93008e-08 -5.71713e-05 6.63299e-05
-0.000173176 -4.24657e-05 -6.87474e-05
-1.1257e-05 3.98682e-05 4.14111e-06
-0.000252122 -0.000259663 -2.25754e-05
0.00031173 -0.000550153 0.00081283
-0.000362747 -0.000254348 -7.21707e-06
0.000208723 -0.000107841 -0.00021623
2.83848e-05 0.000112215 -5.84372e-05
0.000115409 -0.000211449 4.49739e-05
-0.00011554 7.26216e-07 -0.000130424
6.41078e-06 0.000452253 -0.000795812
0.000680232 0.000115192 -0.000105183
1.26899e-05 -2.99489e-05 -0.000132556
-0.000275066 -0.000131984 -0.000364184
-4.36398e-05 -4.55149e-06 3.7088e-05
0.000256802 -0.000214595 0.000170504
0.000151741 -0.000230317 0.00354491
0.000430225 9.09233e-05 0.000566703
-3.1137e-05 -8.94545e-05 -5.66858e-05
-2.64945e-06 -2.58152e-06 -3.22336e-05
-0.000488801 -0.000274876 -9.81016e-07
-1.94178e-05 -1.15438e-05 -9.27208e-07
0.000421147 -8.30516e-05 2.70924e-06
-0.00341363 9.4896e-05 0.00227784
6.39894e-05 -0.000210431 0.000330793
-0.000228301 -7.86906e-05 -0.000154229
4.37358e-06 6.20471e-07 2.23477e-06
-1.09393e-05 1.50919e-05 -3.00607e-06
2.11689e-05 2.92161e-05 -6.9815e-07