<?xml version="1.0"?>
<VTKFile type="UnstructuredGrid" version="0.1" byte_order="LittleEndian" compressor="vtkZLibDataCompressor">
 <UnstructuredGrid GhostLevel="0">
  <Piece NumberOfPoints="1064" NumberOfCells="1064">
   <PointData>
    <DataArray type="Float64" Name="Elongation" NumberOfComponents="3"/>
2.60483e-07 2.01979e-06 -4.55475e-06
9.56201e-05 9.39728e-05 2.30663e-05
-6.64774e-06 -9.87066e-06 4.40483e-07
0.000442317 0.000599633 -8.89995e-05
1.38303e-05 2.08189e-05 2.07899e-06
1.53566e-05 2.42636e-05 2.25655e-05
-1.97137e-05 -2.10614e-05 7.51271e-06
2.20867e-06 -1.37675e-05 -0.000142144
-0.00146756 -0.0012346 -0.000672302
2.21264e-05 1.65021e-05 2.07047e-06
-0.000124844 -7.84594e-05 0.000134885
-2.42149e-05 -1.8941e-05 4.96549e-06
-6.73693e-05 -5.42932e-05 1.04927e-05
1.58469e-05 2.32092e-05 2.82276e-05
-3.07809e-05 -2.63263e-05 2.6028e-07
-3.12058e-07 -2.91273e-06 5.45708e-06
0.000257223 0.000165753 5.94038e-05
4.92786e-06 5.06249e-06 -4.8249e-06
-8.25973e-05 -6.36628e-05 -2.66826e-05
-0.000146519 -0.000115157 -3.12041e-05
-2.58411e-05 -2.1028e-05 -3.37168e-06
0.00297013 0.00312582 0.00241939
0.000372502 0.00101693 0.00224618
-0.000144749 -0.000241388 8.42473e-05
-1.35708e-05 -7.82311e-06 -2.80246e-06
-2.09132e-05 -3.3279e-05 3.28729e-06
7.7721e-05 7.84734e-05 -4.41606e-05
6.85335e-06 -2.51488e-06 -2.70302e-05
-0.000937851 -0.000529822 -0.000608613
-0.000240148 -0.000371556 -0.000108382
0.0027662 0.00152727 0.000374482
-8.91073e-06 -1.05603e-05 -7.83619e-06
-1.75254e-05 -2.84848e-05 -3.35243e-07
2.37214e-05 2.70977e-05 2.79883e-05
-0.000330598 -0.000586507 4.40191e-05
-0.000160739 -0.000139236 0.000169621
0.00105368 0.00165669 0.000241374
-0.000166907 -0.000199069 -2.09246e-05
-4.80953e-06 -1.69167e-05 2.66861e-05
-1.02509e-05 -5.50892e-06 8.25272e-06
-0.000127302 -0.000191726 4.69349e-06
6.37094e-06 1.11989e-05 3.69463e-06
6.59225e-06 1.17354e-05 4.14805e-06
-5.6558e-06 -4.63228e-06 8.25529e-06
-2.51486e-07 -5.65345e-08 3.57692e-07
0.00452779 0.00354615 0.000304144
-1.171e-05 -7.94636e-06 -4.43733e-06
-0.000170126 -0.00121409 0.00199225
-7.65524e-05 -9.81764e-05 -4.20651e-05
0.000585905 0.000912418 -0.000169392
6.15265e-05 8.79955e-05 3.55094e-06
-1.978e-05 -1.85562e-05 -3.06656e-05
0.00010396 0.000152054 6.68852e-06
2.42283e-05 3.30814e-05 6.43774e-06
-1.54581e-05 -1.71345e-05 -1.26958e-05
-2.25441e-06 -2.49569e-06 -1.88253e-06
-3.16585e-05 -1.76692e-05 -1.11468e-05
0.000301359 0.000322733 7.38735e-05
-4.00209e-06 -1.36891e-06 1.66598e-05
0.000103643 0.00010446 4.50301e-06
1.03435e-05 -1.99956e-05 1.03793e-05
5.94254e-06 -1.39041e-05 1.20913e-05
0.000407159 -0.000607618 -7.68328e-05
0.00122975 -0.00142189 -0.00167204
5.98918e-06 0.000118233 -0.000522313
4.09182e-06 -1.03635e-05 6.68741e-06
6.07866e-05 -6.2833e-05 -6.09784e-05
-7.45845e-05 -5.19413e-05 0.000105532
3.16863e-05 1.49745e-06 -0.000103607
-2.98048e-06 1.92074e-06 4.97903e-06
1.44607e-05 -2.27602e-05 6.70112e-06
4.07489e-06 -3.16807e-06 -5.57696e-06
-2.50309e-07 3.42366e-08 7.07167e-07
0.00057316 -0.00132959 -0.00189018
0.000374365 -0.000651351 -0.000218242
6.78414e-06 -9.40882e-06 4.1723e-06
-0.000779665 0.000962595 -0.000335168
-3.1002e-05 4.51671e-05 5.09645e-06
-6.62219e-06 -1.39948e-06 -2.39624e-05
-2.97722e-06 1.61542e-06 -5.66358e-06
0.00175592 -0.00264812 -9.1794e-05
0.00126884 0.000833037 -0.00013712
1.66618e-06 -2.05053e-06 1.52649e-05
-0.000333864 7.37101e-05 0.000983755
0.0012748 -0.00095595 0.000544345
-0.00010942 6.15434e-05 5.00769e-05
0.000265857 -0.000220707 0.00014581
-1.7363e-05 2.2136e-06 4.68507e-05
-2.58376e-05 2.45739e-05 -1.12716e-05
0.000336067 -0.000327768 6.7379e-06
0.00171695 -0.000542193 0.0040547
-0.000179273 0.000184979 0.000117109
3.36003e-05 2.13017e-05 -5.74271e-06
-2.02829e-05 2.08597e-05 5.28279e-06
-5.42744e-05 0.000130135 7.84116e-05
7.06599e-06 -4.99842e-07 2.19608e-05
4.18304e-05 -4.13364e-05 6.13408e-05
-2.22773e-05 1.44126e-05 -1.03771e-06
-1.19234e-05 -1.3602e-05 8.55512e-06
-3.42046e-06 -3.76038e-07 -8.52886e-06
0.000216651 -0.000303654 0.000469628
0.000842531 -0.000537397 0.000469706
-0.00114292 0.00197126 -0.000380377
-7.6674e-05 0.000358995 -0.000592891
-6.00684e-05 -4.26876e-05 5.71907e-05
-1.51551e-05 3.94513e-05 -0.000107944
-6.3361e-05 5.18207e-05 6.26532e-07
0.000281846 -0.000305917 -5.70726e-06
0.000279743 -0.000301183 -1.18274e-05
0.000296379 -0.000358614 -0.000488785
-3.15422e-05 3.70826e-05 -8.7243e-06
-1.79968e-05 2.05608e-05 -7.05171e-06
0.00088202 -0.000822312 0.000742485
-0.00126408 0.00194716 -8.65143e-05
2.30609e-06 6.07449e-06 9.95621e-06
1.5966e-06 -1.81474e-07 3.38065e-06
2.21735e-05 -3.63568e-05 -3.94098e-05
0.000282525 -0.000310153 -3.42587e-06
0.000277045 -0.000307594 -1.26381e-05
-2.32966e-07 -4.52087e-05 0.000128256
5.29494e-06 1.03226e-05 5.75054e-06
-3.52784e-05 4.25464e-05 -0.000131103
-1.60445e-05 1.17954e-05 1.49354e-05
7.2091e-06 -7.69437e-06 -4.47661e-07
1.44795e-05 -1.97983e-05 -1.68933e-05
-0.000480234 0.00050495 -4.01649e-06
-0.000562989 0.000174431 -0.00167355
0.000160138 -9.95373e-05 0.000388986
-0.00203663 0.00158157 -0.00303696
-7.2626e-05 5.25635e-05 -9.95966e-05
-8.12255e-06 4.39576e-06 -1.14179e-05
-2.80323e-05 3.01079e-05 1.51346e-05
-0.000101234 1.29686e-05 -0.000294173
-8.61693e-05 8.18273e-05 -3.33167e-05
-1.13533e-05 1.11318e-05 -3.30542e-06
8.675e-06 -9.79936e-06 -8.75381e-07
0.000164559 0.0002582 -0.000153096
-1.09464e-06 1.45612e-05 1.84987e-05
-7.91862e-07 -1.74038e-06 -1.24496e-06
-1.22964e-05 -7.95705e-05 3.72792e-05
-0.00142644 0.00530936 -0.0120481
-0.000205004 0.00267615 -0.000470226
0.000104343 -0.000265509 0.000254853
4.3672e-05 3.56402e-07 0.000150324
0.000677014 -0.00175523 -0.00184546
0.000412024 -0.00301006 0.000380027
8.69273e-07 6.31723e-07 -1.08734e-07
9.6954e-07 -1.56283e-05 8.87131e-06
1.01855e-05 -2.48033e-06 -1.99806e-05
3.75541e-06 -3.64896e-07 -6.94707e-06
2.2786e-06 -9.13407e-07 3.65555e-06
-0.000110799 -0.000218809 -7.43878e-05
7.36804e-07 -2.92779e-06 3.95485e-05
2.94907e-05 -5.6513e-07 2.47512e-05
1.61335e-05 2.34674e-05 0.000157794
-7.13966e-05 7.70635e-06 -3.5686e-05
-0.000255181 -8.48811e-05 4.18418e-08
7.07739e-05 3.24979e-05 -1.74009e-05
1.37196e-05 1.26758e-05 -0.000276087
5.96844e-06 -1.51326e-05 -1.53626e-05
0.000590834 -1.22809e-05 -6.15128e-05
9.08792e-05 -4.96255e-05 -0.000190994
2.71682e-05 -2.86891e-05 2.36478e-05
-8.75941e-06 -7.12498e-06 2.34531e-05
0.000353721 -0.00010015 -0.000227489
-8.95836e-05 -6.05241e-05 0.000175117
2.94881e-05 1.84885e-05 1.44838e-05
1.444e-05 -2.602e-05 -2.44326e-06
6.36128e-06 -1.51366e-05 1.41819e-05
0.000136771 -0.000277165 0.000562437
3.29698e-05 -8.35973e-05 0.00020587
4.61176e-06 -5.7851e-06 -1.29183e-05
-1.92247e-05 6.09772e-06 9.70721e-06
2.45672e-06 1.91028e-06 4.88324e-06
6.26073e-05 0.000104292 0.000150394
-0.000119611 2.19697e-06 1.81159e-05
-5.95611e-05 4.70034e-05 2.60024e-06
-2.2006e-07 4.91119e-06 2.61888e-06
3.56902e-05 3.58592e-05 1.35812e-06
0.000106564 0.000107911 5.16694e-05
0.000343173 0.00039832 1.412e-05
-5.88408e-06 -3.66704e-06 5.4153e-07
1.22377e-05 -2.81436e-06 -5.21509e-05
0.00142074 0.000516486 0.000323656
-0.00053921 0.000452975 0.000186182
0.000151994 0.00015555 1.80652e-05
-0.00186828 -0.00237367 -6.4614e-05
-6.11648e-06 -8.14712e-05 3.31086e-05
-0.000756086 -9.53529e-05 0.000635502
-0.000578389 4.73351e-05 -0.000823651
1.47742e-05 -0.000271537 -9.07972e-05
-2.96866e-07 1.67637e-06 -3.66214e-05
-1.37475e-05 3.31395e-05 -7.51497e-06
-3.28314e-05 -5.82095e-05 1.31889e-06
0.000112446 -0.000107968 -7.33249e-05
9.46362e-06 8.81515e-05 -2.32895e-05
0.000285174 -0.000276248 -0.000185809
-7.78778e-06 7.74349e-06 -1.16466e-05
5.08344e-06 -4.1522e-05 0.000116286
-7.21072e-05 1.49822e-05 -8.56345e-06
6.21567e-06 -6.52506e-06 4.28619e-06
3.32105e-05 -2.14927e-05 1.59501e-05
2.61629e-06 2.74528e-06 -1.23601e-05
-0.000110347 5.08096e-05 -0.000135217
0.000143897 -0.00037988 -0.000238555
-5.2031e-05 0.000128133 2.49957e-05
0.000278516 1.97708e-05 0.000211197
0.000109753 8.73926e-06 0.000181055
0.000273366 -0.000192168 -0.000159533
-7.55439e-05 -7.75163e-05 -2.43955e-05
8.48398e-05 8.5674e-05 -8.08943e-05
-0.00117395 6.85407e-05 -0.00108298
1.21095e-06 -3.93788e-06 5.65082e-07
0.000241788 -0.000101812 -0.00138908
-1.69736e-05 -1.54157e-05 3.31208e-06
0.000229617 -0.000179443 0.000176028
-0.0008101 0.00030491 0.000486925
0.00241849 -0.000493266 -0.000494418
4.41874e-06 -1.29881e-05 -9.46797e-06
-0.000871063 0.000432801 -0.00201781
0.000114893 0.00012568 -1.6668e-05
0.00123658 -0.00045598 0.000303808
0.000533912 0.000423623 0.000774888
0.000259527 0.00216782 -0.00239998
0.00209906 -0.000326759 0.000209833
0.00081991 -0.00184793 -0.000554396
0.000179942 -0.00159081 -0.000611608
0.000388367 -0.000446328 -0.000178906
7.9091e-05 1.31692e-05 2.83627e-05
-0.000348865 0.000105541 -0.000118036
8.91788e-05 0.00014061 -0.000161995
-0.000253611 0.000929952 0.000463003
-0.000702409 -0.00118088 0.00285758
-0.0016821 -0.00162051 0.00129902
7.65817e-05 -5.68672e-07 0.000116173
2.95707e-05 4.59535e-05 -1.56638e-05
-0.00033272 -0.000686857 9.08472e-05
1.18043e-05 0.000362913 -6.87521e-05
0.000162444 -0.000177784 -6.94671e-05
0.000146831 -0.000147442 7.74237e-05
2.22084e-05 -2.82706e-05 -2.14858e-06
-3.78171e-05 4.89489e-05 -1.0694e-05
0.000123539 -0.000113969 -0.000416558
0.000404351 9.69748e-05 0.00010758
3.04802e-05 -1.01861e-05 -2.92515e-05
-1.51367e-06 -3.36732e-06 -8.2058e-06
-0.000173435 -5.72896e-05 0.000192053
7.19672e-06 -7.18366e-06 -2.36698e-06
1.86988e-06 -6.82406e-06 1.91477e-07
5.85249e-05 1.07629e-05 -3.75205e-07
0.000114525 -0.00018488 0.000374493
-3.84776e-06 3.65977e-07 -1.28104e-05
-2.95904e-05 -4.57242e-05 1.02436e-05
-7.80686e-05 2.20189e-05 -1.77014e-05
-6.60713e-07 1.9321e-06 -1.91166e-07
0.000171757 0.000183273 0.000160895
-1.31733e-05 4.15775e-05 -2.66302e-05
0.000459713 -0.000677533 8.60523e-05
0.000354537 0.000513131 6.79407e-05
0.000139783 0.000149537 3.17684e-05
-1.60267e-05 -0.000239357 8.84181e-05
-2.9763e-05 6.37867e-06 3.49154e-05
0.000349152 -1.80555e-05 -0.000253462
-5.32381e-05 -4.25225e-05 0.000994207
-0.00241673 -0.000987465 0.00067137
-0.00063229 -0.000852049 0.000293722
-7.3156e-05 -0.00143074 -0.000476985
-0.00221929 0.000790023 0.00207386
-0.000192199 -0.000285336 -0.000565045
2.64092e-05 0.000490985 -0.000466818
-0.000971113 0.000167956 0.00120495
-4.2266e-06 8.11172e-05 -5.81548e-06
9.40669e-05 -0.00012137 0.000274809
-0.00063819 0.000151372 0.000231147
8.51154e-07 -3.69715e-06 -9.4577e-06
0.00015694 -3.3391e-05 0.000129847
-8.94061e-05 -0.000134828 -0.000134218
3.62482e-05 -6.16306e-05 6.37618e-05
-0.000608156 7.63801e-05 0.000555628
0.000201813 5.97935e-05 0.000261392
-9.35266e-05 -0.000422171 0.00104819
-0.00113958 -0.000700969 -0.000298375
2.54702e-06 -2.51352e-06 -2.77398e-06
-3.57807e-05 3.61186e-05 -1.73898e-05
8.72439e-06 8.90514e-06 6.48308e-06
-2.52392e-07 -1.94264e-05 -2.86796e-05
-6.49794e-06 -1.43302e-05 -1.26562e-06
-0.000124736 0.000122811 4.0787e-06
4.64407e-05 -4.64574e-05 -1.27e-05
-0.000301784 0.000295928 -0.000193106
9.10801e-08 1.66076e-07 1.98586e-05
-0.000139255 3.90659e-06 6.32428e-05
-6.66408e-06 3.24659e-05 1.76271e-05
0.00018387 0.000136696 2.10986e-05
-9.4607e-06 1.82439e-06 -7.20041e-06
0.000151771 -5.72549e-05 6.28815e-05
-1.38287e-06 8.87919e-05 5.52099e-05
4.67839e-05 0.000120396 -3.54076e-06
1.66393e-05 1.76705e-06 1.229e-06
-0.000533058 0.000268884 0.000292727
-8.96322e-06 -5.26464e-06 1.70002e-05
6.33973e-05 0.000331387 -1.36294e-05
1.39371e-05 1.60106e-05 2.3713e-05
-0.000136575 0.000145865 -6.90733e-06
-4.40295e-05 -2.29133e-05 -1.20648e-05
1.50403e-05 5.82895e-07 2.25896e-05
0.000690745 -0.000182741 5.51381e-05
4.01826e-05 -4.05978e-05 -5.30386e-05
-0.000121042 -0.000141505 0.000127871
4.42502e-09 1.96389e-05 7.07481e-06
3.61523e-06 0.000114955 -5.50707e-05
0.000122765 0.000156309 1.72534e-05
-0.000635546 -0.00323478 0.00241786
-0.00433129 0.00199772 -0.00144804
-0.000576048 0.000149789 -0.000236645
6.95142e-05 -7.20884e-07 1.58761e-07
-0.000341655 4.29784e-05 5.38894e-05
0.00200789 0.00168023 -0.000520838
-7.70886e-05 -0.000372042 -0.000105045
-0.000994653 0.00232401 -0.000247141
0.000186337 -0.00111682 0.000286131
0.0010642 -0.000314127 -0.000107007
-0.000825801 -0.000870818 3.70879e-05
-0.000430632 -0.000183285 -0.000416737
0.000724536 -0.000929256 0.000204333
0.000272245 0.000112831 -7.67913e-05
3.17353e-05 1.83223e-05 -9.89742e-05
-1.38604e-05 -7.88292e-06 3.31474e-06
4.72006e-05 -0.000157801 5.36279e-06
-7.22736e-07 1.07773e-05 -1.21243e-05
0.000140351 -1.97619e-05 -4.66983e-05
-0.000102819 0.000102881 -3.86012e-05
4.12236e-05 1.02633e-05 1.59811e-05
-2.06862e-05 2.52822e-05 -3.36995e-05
8.9075e-05 -1.62716e-05 2.45218e-05
-3.53691e-05 -3.31622e-05 -6.52788e-06
4.60094e-06 8.90929e-06 -8.18186e-06
1.36052e-05 -7.91816e-05 -4.22812e-05
2.77602e-07 -1.63569e-06 1.05276e-07
8.33358e-06 1.01286e-06 -7.35113e-05
2.79503e-06 5.01756e-05 -4.95834e-05
3.40698e-06 1.06702e-05 3.02255e-06
8.27388e-05 3.09049e-05 8.72649e-06
-8.20665e-05 -0.000143893 9.56689e-05
-9.59969e-06 -1.45851e-05 2.98302e-05
4.45036e-06 -8.76162e-08 2.51816e-05
1.9549e-05 -9.11856e-06 7.07465e-06
-1.10327e-06 -1.1079e-06 -3.47188e-07
-0.000536916 0.00109376 -0.000188939
-2.36305e-05 -5.12816e-06 -8.61441e-06
1.21883e-05 -5.04746e-05 7.30194e-06
-4.55953e-06 -5.31831e-06 -6.24349e-06
-1.95907e-05 -2.63482e-05 8.24359e-05
6.66145e-05 1.00067e-05 -0.000112377
0.000485465 -0.000209083 0.000320635
1.73391e-05 4.23087e-06 9.64838e-05
4.6305e-05 -1.77208e-05 0.000265213
1.45166e-06 1.73497e-05 -1.32309e-05
4.27943e-05 0.000153428 0.00011106
3.84798e-05 -2.97744e-05 -4.41035e-05
1.59721e-06 1.13577e-06 -1.17364e-05
-1.80209e-05 -0.000186278 0.000113035
2.03099e-06 1.34175e-06 -3.70579e-05
-4.98989e-05 1.45366e-05 -1.90189e-05
0.00073605 0.000226905 0.00042089
7.99108e-06 0.000135806 -0.000646495
4.86956e-05 -4.5831e-05 -0.00010724
0.000211839 0.000245671 1.07166e-05
0.000298177 -9.58339e-05 0.000537739
-0.000119311 7.11988e-05 -2.81003e-05
2.07565e-05 4.50247e-05 2.80261e-05
6.10299e-06 -3.91528e-05 -3.91716e-05
-0.000823574 0.00190557 -0.0011539
4.35837e-05 1.07115e-05 -8.401e-05
-4.68148e-06 -0.000165671 0.00011451
-5.01312e-05 -6.43865e-05 -3.78762e-05
7.32587e-06 5.98287e-06 -5.49606e-05
-0.000103356 8.64877e-06 6.8102e-06
0.000113191 9.78468e-05 8.88935e-05
0.000204852 0.000189369 9.17919e-05
5.86927e-06 -8.2291e-06 -2.15589e-06
6.7661e-05 5.38856e-05 -0.000259076
-0.000560712 -0.000244753 -0.000104889
6.18324e-05 1.51493e-05 -3.20477e-05
5.89157e-05 3.52629e-05 -8.74595e-05
-3.2494e-05 6.25487e-06 -6.67867e-06
1.08849e-05 2.44773e-05 -3.69072e-05
-5.80823e-05 -4.8094e-05 1.95314e-05
-6.90949e-06 5.51162e-05 1.52293e-05
3.24989e-05 3.85433e-05 -1.97487e-05
-6.63167e-05 -4.11881e-05 -5.61421e-05
-1.68724e-05 2.98146e-05 0.000250403
-1.27535e-05 -2.7674e-05 -9.53877e-05
0.000103052 0.000141189 0.000352937
8.80453e-06 -1.85713e-05 5.7543e-06
3.01272e-06 1.61351e-05 1.25615e-05
-3.75947e-06 -1.48248e-05 -5.34918e-07
3.49981e-06 5.64315e-06 2.60596e-05
0.000185124 0.000178568 -0.000120419
0.000617222 -0.000559636 1.71394e-05
1.44666e-05 1.75986e-05 1.53956e-05
-0.000210167 8.96273e-05 -0.000327054
0.000698396 0.000699009 -0.000130894
-0.000346057 0.00259695 0.000205495
-0.013178 0.00825358 0.00158952
0.0133817 0.00017686 0.00333845
-0.00388525 0.00397875 0.00101991
-0.000582252 0.000532225 -0.000187421
-7.6214e-05 5.6972e-05 -8.02888e-06
-2.70769e-05 2.53708e-05 3.24817e-06
5.74445e-06 -5.51801e-06 1.09341e-05
-6.36697e-05 0.000103333 -2.72619e-05
0.000879497 -0.00094917 -0.000610405
0.00128041 -0.00118435 -0.000628289
0.000152069 -0.000201581 -5.48636e-05
-3.82162e-05 1.06136e-05 -0.000205882
-7.28915e-05 2.34063e-05 -0.000415522
0.000804755 -0.000500827 -0.000479809
-1.47091e-05 -1.63728e-05 -1.96429e-05
-2.30385e-05 4.0072e-05 6.46713e-05
-1.41188e-06 -2.55159e-06 -5.9584e-06
-1.10966e-05 -1.10709e-05 1.04128e-06
-0.000413421 8.8933e-05 -4.40661e-05
-0.000425496 -0.000420368 -9.92895e-06
2.23143e-07 0.000110228 0.00010751
-0.000495789 0.000259344 -0.000959567
-0.000372674 -0.000471717 -5.43013e-05
7.60521e-06 3.82194e-05 3.53249e-05
-0.00193726 -0.000358158 -0.000840769
0.00013023 1.5576e-05 -8.04703e-05
-0.000652408 0.00348637 0.002265
0.00303956 0.00149167 0.00269441
5.8961e-05 -1.68748e-05 0.000551709
-0.000345684 0.000247034 5.962e-05
0.00345735 0.0130556 -0.0133623
-0.000420849 -0.000186528 6.80197e-05
0.00089727 0.00311344 -0.000846726
0.000272307 6.98697e-05 -0.000364438
0.00623735 -0.000577625 0.00112629
9.5948e-05 -0.000349277 -5.18477e-05
0.000191562 0.00451354 0.000620844
-0.00411035 -4.29324e-05 0.000476166
-4.72256e-08 3.2938e-07 -5.79942e-07
-0.000610153 0.000795985 -0.000153123
-0.000210225 0.00284542 -0.00158513
0.00069439 0.000147475 8.1156e-05
-0.000884678 -0.000638436 -0.000408195
-0.00111732 0.002629 0.000366271
7.65985e-05 -8.0037e-06 3.38219e-05
-5.17231e-05 -0.000291043 0.000313698
-0.000243354 0.000231643 0.000793408
-0.000722085 6.90855e-05 -0.000236201
-0.000437845 -0.0001966 0.000841324
-0.000144011 -0.00010261 -2.94874e-05
0.000240704 -0.00023928 -0.000218014
1.65918e-05 1.27527e-05 -3.00818e-05
-0.000262434 0.000194112 -7.35983e-05
-6.78989e-05 -3.95754e-05 -3.49057e-05
-0.000159878 -0.000112215 -1.11549e-05
2.15402e-06 -1.47773e-05 1.53589e-05
-3.73112e-06 -3.11827e-05 -1.31039e-05
-2.35676e-07 7.80188e-06 4.43021e-05
-1.74177e-05 1.74718e-05 -3.26006e-05
0.000263564 -8.45537e-05 -0.000780421
0.000138862 -0.000171206 0.000302932
-6.49713e-05 -6.51311e-05 -2.20807e-05
-2.15293e-06 -2.15326e-06 4.08887e-07
3.20112e-05 -1.47664e-05 -2.83268e-05
2.969e-05 2.25788e-05 3.66209e-05
3.99271e-05 -6.3198e-05 -2.65566e-05
-0.000233113 7.25805e-05 6.38534e-06
-8.63613e-06 7.34898e-06 -1.72087e-05
-4.17463e-05 2.09324e-05 3.92611e-06
-9.38964e-06 -1.70734e-05 2.33928e-05
-1.95023e-05 2.6686e-05 5.83247e-06
-1.18191e-05 2.16274e-06 -7.67086e-06
-3.71842e-05 -7.43523e-05 0.000242488
0.000342979 0.000140964 2.51516e-05
0.00015268 0.000130717 -6.39985e-05
0.000209479 1.92429e-05 -0.000110301
3.19876e-05 9.99309e-05 -5.73972e-05
1.0776e-05 1.92532e-05 3.27441e-05
-5.28854e-05 1.14554e-05 6.32678e-06
6.91455e-06 4.99723e-06 -3.95624e-06
0.000228627 -0.000311668 -0.00071314
3.83989e-05 -0.00024674 1.94984e-05
-0.000114673 5.12399e-05 -3.7224e-05
-8.07935e-05 -1.51016e-05 5.4577e-05
5.36383e-05 0.000201794 -0.000211867
-9.61835e-05 8.9633e-06 2.3657e-05
-2.19535e-05 -0.000228517 0.000100536
-0.00154108 0.00058666 -0.00101398
-0.00297527 0.000921738 -0.000892134
-0.00294077 0.00329441 -0.00593086
-0.000245486 -0.00257753 -0.00103293
0.0024791 -0.000942898 0.000451496
8.17514e-05 0.000161111 -8.33831e-05
-0.000223563 -0.000121064 -2.77147e-05
0.000135499 -0.00025975 -0.000320781
0.000365387 -0.000362759 0.000442312
-0.000389498 -0.000735675 -0.000111539
0.000456711 0.00104319 0.00189664
-0.000297634 -0.000455033 -7.22771e-05
-0.000317417 -3.64758e-05 -3.27082e-05
0.000130333 -6.99284e-05 -0.000102347
0.000682054 0.000162535 -0.0031258
2.71905e-05 1.23702e-05 -2.33177e-05
-1.91284e-05 0.000101498 0.000617843
7.61731e-06 9.02645e-06 -1.78912e-06
-0.000512848 0.00029598 -0.000371735
-1.69912e-05 -6.74686e-05 9.67312e-05
1.81216e-05 3.27365e-05 5.82977e-05
-4.39873e-05 2.78857e-05 -1.67909e-06
-5.36093e-06 -3.10608e-05 1.4941e-05
5.82688e-05 0.000452107 0.000446861
0.000465016 -0.000456581 0.000223827
2.45428e-05 -5.47614e-05 -8.98014e-07
-2.26093e-05 2.75967e-05 0.000235476
1.29982e-05 -1.30866e-05 -1.70552e-05
-3.06711e-06 -1.35211e-06 3.85021e-06
5.59824e-05 -0.000242216 -1.97828e-05
0.000221168 -6.59362e-05 -0.000101748
1.68139e-06 3.14064e-07 -1.41013e-05
3.5012e-06 -3.79202e-06 9.82963e-06
-9.75562e-05 1.63781e-05 3.66181e-05
-5.59448e-05 -6.60512e-05 -2.95657e-05
0.000295522 -0.000233478 5.70609e-05
0.000136476 -0.000332416 -0.000168752
1.49344e-05 -2.07918e-06 -1.80722e-07
-3.55774e-05 -5.18655e-05 0.000114083
-0.000487213 0.000140573 0.000679362
-0.000118376 -0.00011286 -0.00013983
1.47788e-05 2.5841e-05 -4.10414e-06
9.56018e-05 -0.000182462 -0.000211202
0.00022038 -7.61789e-06 8.07386e-05
8.55675e-05 3.95699e-05 2.66139e-05
0.000166249 -0.000122811 0.000117087
0.000165546 -5.48455e-05 -0.000164917
-0.000343121 0.00022262 -0.000562164
4.24729e-06 2.36244e-06 -3.93642e-05
-0.000171743 1.47019e-05 0.000101325
-0.000213801 9.81762e-05 -0.000138029
0.000129927 0.000102657 -6.02688e-05
0.000151107 0.000313841 -6.24335e-08
-0.000510891 -0.000534858 0.000147714
0.000266642 -6.65033e-05 0.000183696
-3.59843e-05 1.26562e-05 4.85461e-05
-0.000128739 -0.000331529 -0.000269548
-0.000185155 0.00012867 -0.000449431
7.20077e-06 -0.000199185 1.33206e-05
0.000412302 5.32562e-05 6.73235e-05
8.619e-05 -8.72006e-05 9.09086e-05
7.36321e-05 0.000160542 6.86918e-07
0.000245495 -0.000479414 -0.000238772
-0.00049678 -7.63466e-05 -1.05802e-05
-0.000103449 -9.367e-05 6.18246e-05
7.33215e-05 -0.000244286 6.98592e-05
-0.000209911 0.000244252 -4.72606e-05
3.99282e-07 -1.87817e-07 6.37797e-07
3.7328e-05 9.25255e-05 0.000136099
-1.13323e-05 5.60832e-05 -9.51244e-05
-0.000152881 -0.000114514 -6.04292e-05
4.44104e-05 -1.32142e-05 -2.99963e-05
-1.29106e-05 1.77157e-05 2.26625e-06
7.16319e-05 8.94422e-05 -0.000132878
1.4326e-05 -5.45156e-06 -6.98221e-05
5.26665e-05 7.69743e-06 -3.05853e-05
-1.14432e-05 7.0676e-06 -3.04913e-05
2.97957e-05 8.12698e-05 -5.51191e-05
4.60758e-05 2.31284e-05 2.74175e-05
-1.11788e-05 2.80408e-05 0.000116259
-5.07117e-06 -1.761e-06 0.000144271
-2.25916e-06 -1.14572e-05 1.97461e-06
6.63795e-06 -2.60554e-05 -7.89956e-06
-4.1456e-05 -6.26135e-05 1.01694e-05
-4.46345e-05 6.60993e-05 -4.74722e-06
8.55637e-05 3.37659e-05 5.48854e-05
0.000265721 0.000172188 -3.46866e-05
-1.86606e-05 -1.50409e-05 4.77396e-06
-1.15854e-05 -1.93439e-05 6.14347e-06
3.74814e-05 8.80593e-06 -2.68912e-05
-0.000240844 -0.000115433 0.00043616
1.82358e-05 0.000115675 0.000205979
-9.25698e-05 -3.83138e-05 -3.14499e-05
6.85805e-05 -5.23714e-05 5.8894e-05
-0.000114878 -3.42928e-05 9.90751e-05
-3.53187e-05 5.90866e-05 1.73551e-05
5.73157e-07 -9.70097e-06 -4.07633e-05
2.15782e-05 -2.33865e-05 -7.59561e-05
3.75839e-05 6.74747e-06 1.10131e-05
6.74089e-05 0.000138396 -0.000898955
-0.000130401 3.37056e-05 -0.000202292
8.52147e-06 8.21228e-05 0.000110055
-0.00013481 -0.000100579 -0.000112396
0.00050083 0.000497187 -0.00028289
-0.000331959 0.00025202 0.000312319
3.82744e-05 -5.14873e-05 -1.17356e-05
2.91548e-07 -4.56939e-05 4.0799e-06
2.20525e-05 -6.3097e-06 -0.000110087
-2.33912e-05 -2.97604e-05 3.49488e-05
2.17769e-07 3.51521e-06 1.66023e-05
0.000240655 0.000454723 2.02751e-05
-0.000431075 0.000428652 0.000180179
-0.000570863 0.000261562 -0.000187642
0.00108487 -0.000100798 0.00016708
2.34619e-05 -1.14013e-05 1.06477e-05
1.51345e-05 -3.72563e-05 -5.24403e-05
0.000163305 0.000352986 -0.000365794
0.000946541 -0.000286645 0.000879564
-5.22739e-05 4.99937e-06 2.646e-05
-1.58626e-05 -8.16211e-05 -2.59842e-05
2.45049e-05 8.94322e-06 -6.04149e-05
0.000323174 0.00021484 -0.000208128
-0.00213331 -0.000129739 0.000195764
0.000640691 0.000310821 0.00031389
-0.000301532 0.000164635 0.000241114
-0.000937577 -0.000748016 0.000926093
7.67539e-05 2.98958e-05 -1.40837e-05
5.13703e-06 -3.91138e-06 3.00991e-05
2.88521e-05 2.87823e-05 -7.39899e-06
3.04965e-06 -8.35401e-06 -1.40561e-05
-2.39438e-06 1.10056e-05 1.37917e-05
-1.81766e-05 -1.26112e-05 -8.83398e-06
4.52002e-06 -1.41859e-05 1.19068e-05
7.85438e-05 0.000221165 9.76789e-05
2.81595e-07 -2.21079e-06 7.49098e-07
1.92559e-06 -0.000195683 0.000192294
3.98184e-05 2.50184e-05 1.44096e-05
6.31685e-06 3.18928e-06 -3.45221e-06
3.76071e-06 -2.24121e-05 5.46799e-05
4.4454e-05 3.62627e-05 -4.06658e-05
4.62067e-07 1.05911e-06 1.51329e-06
-1.52014e-06 4.7522e-06 -1.04429e-06
-1.09184e-05 6.88472e-06 1.10205e-05
-6.11622e-05 4.07376e-05 -3.86503e-05
1.84221e-05 -1.25434e-05 8.80962e-05
-0.000213356 -0.000175361 -5.81426e-05
-0.000357339 0.000477871 -5.76312e-05
0.00137325 0.00124926 -6.87405e-05
-9.60718e-05 -0.00011621 -1.21358e-05
-9.15909e-05 3.85822e-05 -4.58214e-05
0.000231032 0.00013057 8.12285e-06
-5.69028e-05 5.68322e-05 -2.58107e-05
1.3779e-05 6.45625e-05 8.24308e-05
-3.79523e-05 -1.42282e-05 -2.91967e-05
6.79293e-05 3.01495e-05 0.00537827
-0.00196525 0.000588587 -0.000125149
0.000113449 -0.000143592 -6.22056e-05
6.1011e-05 -5.42742e-05 -2.99791e-05
-2.19828e-05 2.21189e-05 1.09938e-06
-3.91363e-05 -5.88649e-05 -3.39601e-06
0.000151396 -0.000151338 -6.41493e-06
-0.000109923 -0.000204404 2.97418e-05
1.34053e-05 -1.72862e-05 -6.04379e-05
-8.13734e-06 0.000632417 -0.000203484
6.3863e-06 -1.22972e-06 0.000107844
0.000234091 -0.000154082 0.000180093
6.89337e-06 6.445e-06 1.05867e-05
-0.000291534 0.000752626 0.000423919
-2.0281e-05 1.53676e-05 4.66358e-05
5.41003e-07 2.03743e-06 2.69996e-06
0.000260895 0.000513185 0.000197245
-8.145e-05 8.7999e-05 0.000384119
-0.000465692 0.000664351 0.000404681
9.61013e-07 9.80517e-06 -4.1143e-05
-0.000227058 -6.90261e-05 1.00121e-05
0.000123617 -3.72367e-05 -6.58198e-05
-1.60594e-05 -1.54422e-05 -0.000274108
-9.56732e-05 9.35626e-05 -1.40731e-05
-0.00015229 -6.36983e-05 9.91281e-05
0.000190225 0.000429447 -0.000401415
0.000739046 -0.000209308 -1.62849e-06
8.34544e-05 -1.66737e-05 0.000212732
-0.00146059 0.00167401 -0.00123334
-0.000790012 -0.000299071 -0.000441807
1.51028e-06 0.000269178 0.000197451
-0.000443137 -0.000642369 2.9615e-05
-0.000426557 -0.00150648 -9.24086e-05
-3.29385e-05 1.73019e-05 -4.7605e-05
0.00175039 0.00113824 0.0004667
3.97591e-06 -1.0895e-05 5.33779e-05
-0.000904607 0.00101793 -9.84621e-05
0.00241164 0.000820717 0.000944268
0.00220514 0.00200705 -0.00148919
0.000137161 -0.00199214 -0.00161873
-0.00315299 -0.00405967 -0.00132226
0.000341105 0.00131502 -0.000131268
-2.68801e-05 1.96077e-05 0.000113131
1.02238e-07 -1.48512e-05 -9.96727e-06
0.000129579 1.73186e-05 0.000161127
2.21337e-05 -2.08163e-05 6.94322e-05
-0.000246223 -0.000413959 0.000827666
2.98791e-05 -4.37788e-05 -0.000174225
-2.32608e-05 -5.92173e-05 1.19767e-05
8.42809e-05 -8.28528e-05 -9.91893e-06
1.49492e-05 -1.48865e-05 7.02078e-06
-0.000193782 -0.000143106 1.5756e-05
1.05502e-05 2.69257e-05 -1.43917e-05
-2.73272e-05 2.78892e-05 -2.33357e-05
9.01779e-05 -9.47061e-05 -8.12371e-05
-0.000151592 -6.00463e-05 0.000413314
2.54452e-06 -1.31878e-05 -1.11717e-06
-7.9342e-05 -4.03706e-05 2.0123e-05
0.000126161 -0.000125638 8.24358e-05
-3.1276e-05 -0.000104951 -3.05955e-05
-8.42629e-05 8.47763e-05 0.000669418
4.31627e-06 2.09907e-06 -1.20187e-06
-4.57112e-05 4.44467e-05 2.32376e-05
4.02604e-05 4.02801e-05 -1.35259e-06
2.60941e-05 -5.67935e-05 -3.31566e-05
5.22291e-06 -1.73132e-05 -4.51721e-05
-1.60619e-06 7.96714e-06 3.23636e-06
-6.75981e-06 7.10657e-07 -8.02633e-06
-5.82166e-05 4.12679e-05 -1.65054e-05
7.14859e-06 -5.55979e-06 -7.55863e-05
-1.85591e-06 -3.22336e-06 1.53401e-06
-9.08035e-05 0.000331356 8.40215e-05
-0.000285828 8.9258e-05 -0.000162155
6.48564e-05 0.000266933 0.000124286
2.82317e-05 9.90056e-05 -4.71767e-05
-3.54718e-05 -0.000140014 1.23677e-05
-0.000127674 -0.00012816 6.92116e-05
-0.00179301 0.000522051 -0.000599317
-1.03696e-05 8.27898e-05 -3.66558e-05
0.000146977 7.08427e-06 4.48321e-05
-0.00197104 9.76822e-05 -0.000529918
5.96046e-05 5.78454e-05 -8.92118e-05
0.0075157 -0.00532903 -0.000287777
-0.00109424 -0.0128549 0.00261071
-6.47796e-05 -0.00210895 4.93193e-05
-0.015665 -0.0038782 0.00106616
0.00151715 0.0156167 -0.00298005
-4.47189e-05 -3.80435e-06 -2.55659e-05
0.000416101 -0.000173687 7.97165e-05
0.00210728 -0.00268761 -0.000866928
0.000161882 4.15535e-05 -0.000102377
-0.000483298 -7.95486e-05 -0.000210872
0.000205295 3.61468e-05 -0.000517384
-0.000196294 4.72936e-05 1.99942e-05
-0.000441253 -0.000471832 0.00064906
0.00110141 -0.000527473 0.000244444
-2.41604e-06 -6.68998e-05 4.83715e-05
-7.10428e-06 -1.86254e-05 2.07905e-05
-5.4945e-05 4.38247e-05 -2.09062e-06
-2.20748e-05 1.94382e-05 1.32783e-05
-4.33122e-05 4.14176e-05 -2.04103e-06
-4.84492e-06 -1.5626e-05 -7.58865e-06
0.00154934 0.00143898 -0.00147818
5.35037e-05 1.1411e-05 4.77038e-05
0.000219296 0.00011591 -0.000207298
-0.000337022 0.00034171 -4.67384e-05
0.000674024 -0.000404265 -0.00280596
5.27151e-05 0.000107306 1.16396e-05
-2.2068e-05 5.66788e-05 6.8875e-06
-9.92815e-05 -0.000221955 -7.20139e-05
-9.0478e-06 -7.43455e-06 3.09209e-07
0.000119699 -0.00011882 0.000211899
1.4775e-05 6.8354e-06 -8.23576e-06
-3.52325e-05 3.53018e-05 -2.58938e-05
-2.92404e-05 -8.04252e-05 1.41449e-05
1.06267e-05 2.22938e-05 1.21411e-05
1.05804e-05 1.66437e-06 1.12857e-05
-3.02153e-05 -3.03986e-05 1.07058e-05
4.8669e-05 4.78353e-05 7.06993e-07
8.11462e-06 -4.84928e-05 1.31074e-05
-2.07166e-06 2.61864e-06 1.81792e-06
0.000166652 -0.000181919 -0.000323617
5.57007e-05 -1.18902e-05 -3.00521e-05
-3.05865e-05 -5.1576e-05 7.30898e-05
1.517e-05 -1.25486e-05 8.07656e-05
-0.00013078 3.32516e-05 0.000122668
-1.59966e-05 -1.49187e-05 -1.79271e-05
1.23248e-05 -1.98804e-05 1.30689e-05
4.18153e-05 8.50715e-05 0.000186716
2.40045e-05 -1.38653e-05 -3.88148e-05
2.18058e-05 1.76473e-05 -1.17983e-06
-2.95174e-05 4.16292e-05 5.1302e-05
2.07828e-05 -2.74447e-05 -9.63393e-06
-0.000145999 -0.000267268 0.00013584
-0.000184554 0.000288719 -1.85382e-05
0.000376335 -0.00016343 -0.000210518
0.000687093 9.6465e-05 1.65224e-05
0.00037589 0.000896052 0.0002605
-0.000200078 0.00184381 2.63742e-05
8.36441e-05 -0.0030102 -0.00189121
-0.000206736 -0.000136395 0.000127044
2.91634e-05 -2.68269e-05 1.87793e-05
-0.000581103 -0.000271358 0.00177418
-0.00241297 0.00133532 -0.000718303
3.8658e-05 3.48024e-05 -4.02234e-05
-0.000153414 -4.03182e-05 -9.42924e-05
-3.48259e-06 1.69618e-05 -1.05968e-05
5.69006e-05 0.000110309 5.77767e-05
0.000223335 -0.000442903 -0.000997805
2.21748e-06 1.64872e-05 -9.4197e-06
-0.000678664 -0.000201534 0.000316803
0.000376062 -5.56086e-05 -0.000554824
-0.000147552 0.00017151 3.28342e-05
-0.000273936 0.000121654 7.44772e-05
1.56475e-05 3.06791e-05 1.86818e-06
-6.73528e-06 4.04098e-06 7.98123e-07
2.39738e-05 3.36139e-05 -1.4708e-05
0.000126459 5.36613e-05 3.78078e-05
-0.000138172 -0.000217768 1.31134e-05