<?xml version="1.0"?>
<VTKFile type="UnstructuredGrid" version="0.1" byte_order="LittleEndian" compressor="vtkZLibDataCompressor">
 <UnstructuredGrid GhostLevel="0">
  <Piece NumberOfPoints="1026" NumberOfCells="1026">
   <PointData>
    <DataArray type="Float64" Name="Elongation" NumberOfComponents="3"/>
-0.000327304 -0.000179167 -6.29298e-05
-2.19187e-05 -1.50152e-05 2.53905e-06
-4.06249e-06 -1.3448e-05 1.24775e-05
-3.06078e-05 -4.94133e-05 -6.45778e-06
0.000447545 0.000458886 -0.000119052
1.68928e-05 5.15916e-05 4.78874e-05
-0.000125947 -0.000119976 0.000121003
-0.000184183 -0.000252576 -3.51057e-05
-1.45703e-05 -2.34804e-05 6.84023e-06
-0.00114786 -0.00118047 0.000122357
4.30593e-06 4.1886e-06 -6.96537e-07
1.62537e-05 1.94581e-05 1.7048e-05
0.00052874 0.000584626 3.19289e-05
6.66603e-06 4.73011e-05 -7.35542e-05
0.000352467 0.000434779 -0.000223122
-5.01829e-05 -5.4414e-05 6.95717e-06
2.01755e-06 -0.000137391 0.000385415
2.58598e-05 2.56411e-05 2.0777e-06
-3.70645e-05 -3.17415e-05 -2.07542e-06
1.12092e-05 1.10668e-05 -3.82344e-06
-8.44322e-06 6.55256e-06 4.02276e-05
5.35899e-06 7.90136e-05 0.000144848
-2.55532e-05 -2.23226e-05 4.16773e-05
-0.000626563 -0.000420072 -7.06274e-05
1.4058e-05 8.16883e-06 -1.21809e-06
-3.97788e-06 -1.35187e-06 3.52175e-06
8.62219e-06 3.42327e-05 9.09286e-05
-0.000200002 -0.000128506 1.9827e-05
3.22944e-05 3.83304e-05 -6.35878e-06
2.20108e-06 2.2564e-05 -6.26953e-05
-1.77625e-05 -1.02496e-05 -1.7763e-06
-0.000863891 -0.000519493 -0.000209083
-0.000225485 -0.000120725 -0.000105439
-2.87622e-05 -1.21155e-05 -2.32657e-05
-0.00032306 -0.000345699 -0.000162509
4.54219e-05 5.77975e-05 -3.63295e-07
0.000177687 0.000252082 0.000315268
-3.31877e-05 -2.4531e-05 7.32732e-06
-0.00252549 -0.00348463 0.00166553
0.000196309 1.97974e-05 -0.000323113
0.000641291 0.000932969 -0.000214906
3.69561e-06 1.05185e-05 1.18446e-05
-3.38049e-06 -5.9867e-06 -2.89762e-06
-1.45189e-05 -4.93142e-06 3.54088e-05
-1.29796e-05 -1.67386e-05 4.14187e-06
-2.79634e-05 -3.83794e-05 3.75959e-06
-6.82702e-06 -4.3858e-07 2.12891e-05
0.000289396 0.000672921 -0.00133561
-3.3778e-05 -1.91984e-05 -2.47986e-05
-8.73368e-05 -0.000126024 -4.23074e-05
8.44758e-06 4.15054e-05 -6.67125e-05
-4.03305e-06 -6.13115e-06 1.57397e-06
9.99335e-06 1.92485e-05 -1.59048e-05
-2.78339e-06 -3.98779e-06 2.58481e-07
-1.59089e-05 -1.77581e-05 -1.11984e-05
-3.0112e-06 -3.34774e-06 -2.14504e-06
-1.55847e-05 -1.8393e-05 -9.26481e-06
-1.10215e-05 -1.32157e-05 -7.93183e-06
-2.80046e-05 -1.94396e-05 -5.37869e-06
-0.00102704 -0.000760557 0.00109536
8.86814e-05 -0.000128223 4.60005e-05
8.77878e-06 8.84181e-06 -5.88588e-07
-0.00213399 0.00394011 -0.000767758
-0.000103321 6.41491e-05 -2.12673e-05
0.000117943 -8.21559e-05 -1.76361e-05
-0.000208717 0.000352752 -4.27327e-05
-3.28648e-05 4.67399e-05 1.1274e-05
-0.000124823 0.0001549 8.80637e-05
3.30542e-05 0.00012036 0.000210063
-1.4745e-06 9.26471e-06 -1.4395e-05
4.79383e-06 -4.45216e-06 -6.41272e-06
-7.25722e-06 7.3156e-06 7.83263e-06
-6.4604e-06 6.60639e-06 6.76101e-06
-0.00375407 0.00666979 0.0022001
0.000851646 -0.000680292 -0.000206723
-6.53386e-05 4.06553e-05 -3.3984e-05
-0.000106453 0.000164832 -9.29314e-06
-8.12947e-05 0.000105139 -4.86339e-05
-5.20355e-05 7.85827e-05 -7.193e-06
-2.55267e-05 -2.07853e-05 1.88988e-06
6.20337e-06 -1.73337e-06 1.66529e-05
-6.70903e-07 2.76703e-06 3.73637e-06
-2.41349e-06 4.08143e-06 9.2144e-07
0.00147737 -0.00208511 0.000799433
1.61443e-05 -2.74855e-05 1.74874e-05
-0.000328942 -0.000289998 -4.09698e-05
0.00205875 -0.0010965 -0.000742946
0.000307204 -0.000194841 4.94848e-05
8.57214e-05 -7.6088e-06 -0.000143062
0.000127989 -0.000201747 -3.96095e-05
0.000193043 -0.00012765 5.30856e-05
-8.87735e-05 -7.20711e-05 8.15711e-06
1.19194e-05 -2.1139e-05 1.16562e-05
-1.87406e-05 1.38657e-05 2.62764e-05
0.000379422 0.00017685 0.00195508
-0.000279793 0.000256454 -0.000299757
0.000137903 0.00011557 -1.74526e-06
0.000147485 -0.000306363 -0.000104429
-5.55527e-05 3.56593e-05 1.23387e-05
-2.45791e-05 1.37185e-05 -2.35619e-05
1.40466e-05 -2.7233e-05 -1.91802e-05
1.8778e-06 -3.16053e-06 -1.45539e-06
7.75234e-05 -5.64448e-05 2.27269e-05
3.13611e-05 2.92094e-06 0.000162435
-2.05988e-05 1.98447e-05 2.07292e-05
1.38186e-05 -9.40716e-05 0.000286737
-0.000147083 -8.51466e-05 1.2796e-05
0.000353357 -0.000190049 -5.61275e-05
-4.67765e-06 -2.7768e-06 2.21016e-05
4.1522e-05 -5.17198e-05 9.67229e-07
1.58306e-05 -9.50163e-06 -8.96322e-06
-1.39258e-05 -9.45948e-06 -1.35416e-06
-2.85668e-05 0.000239628 0.000620781
-1.42023e-05 -1.51011e-06 -0.000110539
0.000864483 0.00146928 0.00772731
-2.10775e-05 1.9916e-05 -2.20805e-05
7.80484e-05 -0.000219329 -0.000574869
0.000352667 -0.000227762 -7.11903e-05
-3.12669e-06 4.75797e-06 2.87585e-06
7.0817e-05 -8.48877e-05 6.4448e-06
-6.59614e-05 4.77938e-05 -1.24607e-05
-1.80511e-05 -2.32604e-05 1.53153e-05
-0.00103515 0.000471901 0.000622874
-8.02966e-05 -1.55219e-05 -0.000548259
0.000324779 -0.000777422 0.000452968
1.13643e-06 3.05023e-06 2.12336e-06
-9.90378e-05 5.61524e-05 1.86407e-05
-2.52972e-05 2.61928e-05 1.05384e-05
-2.17126e-05 3.01752e-05 1.11299e-05
1.0735e-06 -3.20467e-06 5.09298e-06
-1.75787e-05 8.69269e-06 2.12706e-05
2.9141e-06 -2.62422e-06 -2.22939e-08
-7.93149e-05 5.93029e-05 -5.98131e-06
-9.49799e-06 -7.76631e-07 -3.39417e-05
-6.57901e-06 3.394e-06 -5.2372e-06
3.30065e-05 -0.000205902 -0.000295559
-5.75932e-06 3.9273e-06 -7.43586e-06
0.000145719 -0.000288059 -0.000103587
9.88725e-05 -0.000154679 1.46517e-05
-1.79185e-05 1.8784e-05 -3.89853e-06
-4.51204e-05 3.97591e-05 -2.85437e-06
-1.83688e-05 -2.25149e-05 -5.59912e-06
-9.02058e-06 -9.51425e-06 5.51015e-07
-6.20165e-05 -0.00027144 3.75209e-05
-4.70448e-05 0.000127753 -6.86856e-05
1.77486e-05 -1.93023e-05 0.000115816
-2.45394e-05 9.46174e-05 4.83444e-06
5.56172e-05 -0.000180686 4.2687e-05
-8.01087e-05 0.000291648 0.000220983
-3.11549e-06 5.44526e-06 1.01018e-05
-7.1339e-05 0.000196878 -0.000221833
-2.73146e-06 3.38308e-06 -9.34435e-06
-2.79221e-05 0.000270516 7.71466e-06
-0.000108156 -9.13679e-05 5.92337e-07
0.000140814 0.000119341 -2.16277e-06
6.69911e-06 -4.72076e-05 0.000144233
-7.0943e-06 6.65072e-06 1.4549e-05
-0.000132035 -7.70033e-05 9.96112e-05
-7.50472e-05 -0.00048534 1.86487e-05
4.67167e-05 2.44382e-05 -2.4949e-05
1.23436e-05 -9.39306e-06 -2.83397e-05
5.54959e-06 1.64316e-05 3.22997e-05
-6.61165e-06 -4.82363e-06 -7.36365e-06
7.73694e-05 -0.00041491 9.46465e-05
2.49744e-05 2.03359e-05 -3.84208e-06
-0.000138548 8.02015e-05 0.000120707
1.76388e-06 1.30803e-05 7.99543e-06
5.66375e-05 0.00023025 -1.55568e-06
-0.000437221 0.000495361 -0.000777495
-6.72858e-05 -7.79242e-05 -0.0013625
-1.09498e-05 -1.82536e-05 3.49089e-05
-5.9521e-05 0.000503753 0.000237831
0.000903812 0.000212458 -0.000865248
-0.00046024 0.000501691 -2.78583e-05
0.00207209 0.00112818 -4.44461e-05
-4.00796e-05 5.98332e-06 -5.34756e-05
-0.000256903 0.000724907 0.000227971
4.74934e-05 -3.63335e-05 -1.2752e-05
-3.27444e-05 -4.54637e-06 0.000187721
-0.000513289 7.37187e-05 -0.000768987
-1.26685e-05 2.56215e-05 -0.000202482
1.47265e-05 -1.70821e-05 9.41731e-07
-2.6646e-05 2.61325e-05 -2.66521e-05
-1.85881e-06 2.56043e-05 -1.84465e-05
2.40004e-05 1.03316e-05 -7.54282e-06
2.75864e-07 -1.1542e-06 -4.79355e-06
4.66915e-05 4.44386e-05 -7.29336e-06
-2.34778e-05 -2.47511e-05 -6.0565e-06
-0.000493541 -0.000492194 -0.00020179
-1.33968e-05 -3.12426e-05 -6.96344e-07
0.000126743 7.80724e-05 3.34549e-05
0.000368927 0.000386597 0.000259756
-0.00139957 -0.000738591 -0.00046706
-0.00107684 -0.00137105 -2.0888e-05
0.00394505 0.000660522 0.000255971
0.00181763 -0.000254949 6.34334e-05
-0.000167088 -6.0535e-06 0.000132589
-2.7782e-05 2.7832e-05 -4.6127e-06
-0.000110723 0.000120071 -5.20131e-05
-0.000215954 0.000209699 -2.716e-05
-3.29412e-05 3.35313e-05 1.95146e-05
-0.000105178 0.00010477 4.12979e-05
-0.000616725 0.000862027 1.13926e-05
4.90362e-05 -4.95817e-05 -0.000110369
0.000190879 -0.000127038 4.15362e-05
1.91398e-05 -9.43572e-06 1.43451e-05
0.000110442 9.95879e-05 -9.41161e-06
0.000223081 0.000155536 5.77374e-06
1.73944e-05 2.45594e-05 6.34753e-07
0.000133613 -0.00039126 -2.92066e-05
-0.000175707 -1.59905e-06 1.01364e-05
-0.000577155 9.19874e-05 0.000161116
0.000303898 0.000318247 6.87348e-05
2.81921e-05 2.7841e-05 -5.68449e-06
2.31891e-05 2.34453e-05 7.24417e-06
-0.000242157 -0.000615274 -0.00108492
0.000132179 0.000169082 0.000151133
-6.28917e-05 -0.000282624 0.000110193
-0.000759391 0.000102045 0.000368817
-0.00265113 -0.000490472 -0.00759104
-0.000254179 -0.000395665 -0.00356491
-0.00138331 -0.00151052 5.54005e-05
-9.33528e-05 0.000317794 -4.86316e-07
-0.000271243 -0.000226786 -1.90161e-05
-0.000620734 0.000210957 -0.000168069
0.000131957 -0.000290629 -6.80814e-05
0.000607972 0.000170261 -0.000109543
-4.79064e-05 2.0881e-05 -0.00011779
5.74302e-05 -0.000284803 -0.000167351
0.000312454 0.000316377 0.000103991
0.000199275 -0.000997049 -0.000326992
-0.000165851 -3.22667e-05 -9.48733e-05
0.000190081 0.000108825 -0.000129365
0.000832168 -0.000403859 -0.000698718
8.39042e-05 1.94402e-05 0.000148014
0.000221996 -9.5445e-05 0.000543747
1.78449e-06 4.91249e-05 -6.34418e-05
3.40205e-06 -2.4942e-06 -4.4175e-07
-5.71393e-06 6.92501e-06 1.32257e-06
8.50016e-05 0.000181497 3.48166e-05
-0.000209657 -1.56332e-05 7.27522e-05
0.000134038 8.08972e-06 3.14378e-05
-0.000122598 -0.000399626 -0.000217674
0.000152621 -0.000668311 0.0013792
-0.000992379 8.41805e-05 2.10983e-05
-0.000153997 -0.000341227 -6.11966e-05
0.000205508 -0.000228048 0.000147451
0.000115753 -0.000111856 -5.30768e-05
-5.80696e-05 -9.69445e-05 -2.33916e-05
-3.85773e-05 4.54931e-05 5.10669e-06
1.86867e-05 -2.66491e-05 -1.81661e-05
-1.43903e-05 -4.866e-05 -3.22772e-05
-5.29582e-06 3.49347e-05 -0.000123783
-0.000170201 0.000144284 1.02366e-05
-3.85985e-05 -6.3937e-05 -3.05605e-05
-3.19742e-05 5.69421e-05 -3.79914e-05
-2.02493e-05 2.02273e-05 2.03817e-06
-2.28195e-06 -2.28779e-06 4.42174e-06
-1.19524e-05 3.08549e-06 -9.36285e-06
-2.45806e-05 -2.49975e-05 -7.91353e-05
0.000541817 -0.000211586 -8.00618e-05
5.1929e-05 -5.61315e-05 3.2285e-05
-7.77304e-05 0.00011622 -4.22235e-05
0.000170585 0.000207421 -6.7271e-05
-1.39226e-05 2.27489e-05 2.4039e-05
-0.000119625 -8.30256e-05 0.000136953
2.05476e-05 2.91958e-05 3.74997e-05
1.24931e-05 1.33156e-05 9.8444e-05
1.95263e-05 6.78208e-05 -4.44158e-05
0.000144591 0.000337505 0.000356126
0.000424873 -3.64572e-05 -0.000278896
-1.34731e-05 1.36661e-05 -5.71418e-06
3.01537e-05 -4.47293e-05 -9.08475e-05
-1.01075e-05 -8.52421e-06 3.88555e-07
8.44892e-05 -0.000277776 1.1607e-06
-0.000448841 -0.00125748 -0.000248368
0.00105058 -0.000602198 0.00374456
-0.000457809 -0.000436688 -4.63119e-05
7.63952e-05 -9.70668e-06 6.7802e-05
-2.48616e-05 5.64555e-05 2.72991e-05
-7.40803e-07 -8.43434e-07 7.84856e-06
-5.7656e-06 -1.42936e-05 -9.62684e-06
-4.27235e-05 6.70508e-05 9.87791e-05
2.90907e-05 -5.78125e-05 0.000428527
-0.00121717 0.000689106 -0.00068763
0.000215026 0.00192177 8.50588e-06
-7.14445e-05 3.41876e-05 -0.000420986
-0.000343305 0.000577964 0.000153016
0.000384002 -0.000793788 -0.00142901
0.000422996 -0.000308133 9.13377e-05
0.000713921 -0.00219083 -1.42788e-05
-6.70975e-05 3.61304e-05 0.000127339
3.88087e-05 -0.000230839 2.59083e-05
-1.46269e-05 -2.04106e-05 6.44106e-05
-0.000207778 0.000141821 2.7114e-05
-4.9277e-05 -5.12096e-06 -1.65017e-05
2.63715e-05 -5.5282e-05 2.51249e-05
7.1243e-05 7.6659e-05 0.000129956
-6.4315e-05 -3.92933e-05 5.70611e-05
0.000944254 -0.000238555 0.000193526
-1.04005e-05 -3.02412e-05 5.87716e-05
7.6635e-07 -1.41497e-05 -1.94654e-06
9.65509e-05 0.00020707 -2.11123e-05
-7.6122e-05 1.21989e-05 -8.63017e-05
2.25432e-05 2.67416e-05 -5.68442e-05
-5.36409e-05 -4.42799e-05 -2.56458e-05
2.30668e-05 -2.3996e-05 -1.68202e-05
-3.47745e-06 -6.0659e-06 6.49248e-06
-2.58642e-05 2.2658e-05 6.72915e-06
1.26731e-05 -9.26535e-06 -4.43961e-05
-2.60283e-05 1.11317e-05 -3.29878e-05
-2.01473e-05 2.01876e-05 -3.115e-06
-1.04935e-05 -1.04974e-05 -2.59883e-06
2.65648e-06 -6.65075e-06 8.13106e-06
-7.46908e-05 -5.05599e-05 -0.000142445
-2.39074e-06 7.32657e-07 3.03333e-06
-1.40495e-05 -1.30393e-05 -4.28867e-05
-9.44323e-07 5.11024e-06 -1.10816e-05
1.41683e-05 0.000215663 -4.39083e-05
-5.1475e-06 4.26489e-06 -1.05717e-06
-2.86877e-05 2.40448e-05 -2.70389e-05
-0.000223349 0.000507339 -0.000236191
0.000156118 0.000231951 1.69138e-05
0.000109702 0.000194157 0.000139864
-4.79157e-05 -4.67097e-06 -2.73443e-05
0.000471385 0.000193075 -2.41259e-05
-0.000519451 -0.000443292 0.000147888
0.000373627 -0.0003137 0.000104376
0.000411681 0.00145814 0.000668794
-0.000165323 -0.00100068 0.000144356
7.56986e-05 -7.51394e-05 1.3569e-05
-1.28902e-05 7.48437e-05 1.57289e-05
-0.00029907 -1.56063e-05 0.000728076
0.000388827 -0.000477794 0.000291916
-0.00230395 0.00411492 0.00839939
0.000293601 0.000202646 0.00096569
-0.000137634 -0.000768705 0.000184536
-0.00138249 -0.00062149 -6.68723e-05
1.22387e-05 -9.50445e-07 -6.48605e-06
0.00084906 6.62871e-05 -0.000123526
0.000250717 0.000174928 -0.00064491
-2.32668e-05 1.37486e-05 -7.4674e-06
-5.18524e-05 4.32103e-05 -6.26541e-05
1.40744e-06 -2.32788e-05 6.69049e-06
-4.83607e-06 3.60017e-05 5.37216e-05
-4.54109e-06 1.79765e-05 -0.00019955
2.64132e-05 -7.45407e-06 -2.58177e-05
-0.000184715 0.000114832 1.84266e-05
8.64826e-05 -1.52406e-05 -8.33547e-05
3.8635e-05 -3.86513e-05 -6.6204e-07
4.20167e-05 -1.55455e-05 -1.26557e-05
4.0383e-05 2.18189e-05 -1.5109e-05
3.86073e-05 3.40679e-06 -5.9286e-05
-4.7149e-06 6.01697e-06 -1.15217e-05
-9.78651e-05 -3.32012e-05 9.83557e-06
9.17815e-06 3.29645e-05 -3.51056e-05
-4.42413e-05 -8.66509e-06 1.63165e-05
-9.37522e-06 -2.81648e-05 -1.69179e-05
-4.11905e-05 4.09996e-05 -1.04989e-06
6.34378e-06 3.13488e-05 -1.34753e-05
4.47254e-05 -3.49418e-05 -2.25546e-06
-2.75821e-07 1.31952e-06 -5.32791e-07
-2.8209e-05 5.24973e-06 6.94001e-06
1.39679e-06 -2.84213e-06 -8.36744e-06
2.46778e-05 2.73304e-05 -4.70147e-05
7.79252e-06 3.09352e-06 7.6751e-06
-3.36282e-05 -1.40881e-05 -1.46542e-05
2.44034e-06 4.92952e-05 1.56673e-05
-1.45703e-05 2.33565e-05 8.45257e-05
-0.000198385 0.000150525 0.000119675
-1.45381e-05 3.39275e-05 -8.93631e-05
-0.000359123 9.10714e-05 0.000115969
0.000798104 -0.000658185 8.15731e-05
-0.000172252 -0.000113147 -0.000155232
-6.20684e-05 -0.000407877 0.000184693
-0.000371146 -0.000181639 8.84641e-05
0.000285934 -0.000546088 0.000177008
-0.00158679 0.00146281 0.000489946
-1.45539e-05 -0.000188613 3.58956e-06
-0.00016866 -1.47487e-05 -3.79185e-05
-2.44158e-05 -0.000171816 -0.00021986
-0.000334829 -0.000294123 0.000787956
3.92633e-05 1.28808e-05 0.000106849
-0.000759958 1.41157e-05 -0.000289442
-9.92563e-05 0.00199374 -0.00601655
3.62934e-05 5.6987e-05 -8.02892e-05
2.57968e-05 -8.10536e-06 -3.78395e-05
-3.16781e-06 -1.68743e-06 3.62111e-06
3.94653e-06 1.33647e-05 -1.50221e-06
-0.00237236 -0.00183431 0.000201904
-4.44311e-06 0.000222477 -4.51467e-05
0.00186554 -9.43381e-05 0.00168151
-4.59963e-05 -1.14072e-05 1.4193e-05
4.91912e-05 1.11844e-05 -1.30162e-05
-6.51151e-05 -0.00013997 -1.09733e-05
-1.48831e-05 1.29627e-05 3.67166e-06
1.1262e-05 1.47848e-05 -6.1856e-06
-0.000181901 -1.23827e-05 8.39571e-05
-1.81891e-05 -3.32352e-05 2.95539e-05
-0.000176888 -0.000175308 2.53821e-05
-0.000517198 -0.000516901 -0.000129761
0.00216759 0.0077196 0.00185942
0.000328421 0.000838775 4.4573e-05
0.000272197 -3.68657e-05 -4.19132e-05
0.000603415 0.000785786 2.40173e-05
-9.22654e-06 -0.000374493 -0.000210536
-0.000343162 0.000435741 -0.000142356
-8.20928e-05 -1.93417e-05 -0.000173893
0.000562954 -0.000440034 -9.4883e-05
-3.2809e-05 3.85012e-05 -1.92105e-05
2.60496e-05 -2.66067e-05 2.13022e-05
-5.06997e-06 1.16977e-05 4.34326e-06
-8.58796e-05 8.49378e-05 0.000106243
0.000162354 -0.000161564 6.84055e-06
-4.81868e-05 4.82784e-05 -2.63012e-05
-0.000212243 0.000126664 6.41503e-05
6.78681e-05 5.2504e-05 4.67404e-07
-1.14437e-05 2.00529e-05 -8.46872e-07
-5.18855e-06 -1.64903e-06 -1.54747e-05
9.10875e-05 9.49902e-05 2.05457e-06
-4.57687e-05 5.80489e-05 6.9141e-05
-5.88607e-05 -4.74435e-05 -2.31203e-05
0.00115218 -0.00156786 7.6281e-05
-1.08659e-06 4.03706e-06 -3.31066e-05
-8.18648e-05 0.000194946 9.10863e-05
2.44925e-05 2.32584e-05 -5.30106e-05
0.00083555 0.000824087 0.000300618
9.04126e-06 0.000730883 -0.00037683
-0.000506547 0.00102133 0.000161897
-0.000939741 -0.000184493 -8.23586e-05
0.000399701 -5.71994e-06 -0.0004234
2.05256e-05 -5.05283e-05 2.97544e-05
2.09259e-05 -4.09569e-05 -5.31321e-05
0.000281815 -0.000160637 -0.000518984
0.00115227 -0.000162907 -0.000294704
0.000172958 8.4976e-05 1.61023e-07
-1.90727e-05 0.000168634 1.57856e-05
-0.000314289 -1.68087e-05 1.06635e-05
1.66075e-05 -2.112e-05 -2.24989e-05
8.64915e-05 2.28284e-06 -3.66472e-05
-8.55371e-05 -0.000365448 0.000381114
5.20521e-05 2.56064e-05 7.02355e-06
0.000157341 5.61948e-05 -2.99822e-05
2.81298e-05 -3.7229e-06 4.70522e-05
-9.67206e-05 9.04841e-05 -3.2855e-05
8.1808e-05 6.68029e-06 -1.90443e-05
-0.000113184 0.000250643 2.44268e-05
-5.30357e-05 -0.000403438 0.000281138
-2.78558e-05 0.000109535 -0.000246487
-0.000278031 0.00034858 -0.000627195
0.000896454 0.000354147 0.00077601
5.27858e-06 -1.81507e-05 -0.000103386
-0.000368839 0.000429753 -0.000314097
0.000284623 -0.000235289 -0.000156541
-1.20377e-05 1.20439e-05 7.55845e-06
-0.000165923 -0.000290847 -3.28332e-05
-2.97088e-06 -6.98199e-06 2.20475e-06
1.51545e-05 2.29884e-05 -1.66432e-06
-3.22003e-05 -3.14073e-05 1.85162e-05
-3.05605e-05 -9.80844e-05 2.5446e-05
0.00010009 0.000104245 -6.14236e-05
-0.00014285 0.000144272 3.10928e-05
-2.38243e-06 -2.38711e-06 -1.78649e-05
1.54889e-05 -2.61768e-05 5.01183e-05
-3.76031e-05 -3.76606e-05 2.96926e-05
1.42612e-05 1.42814e-05 -3.30941e-06
-9.42997e-06 -1.03221e-05 -1.06208e-06
4.38281e-06 -1.6101e-05 2.96094e-06
-8.74427e-06 -4.40732e-06 -1.96325e-08
-2.11378e-05 3.5469e-05 -4.15275e-05
2.38585e-05 1.41126e-05 -5.39562e-07
3.54501e-07 -2.34194e-06 -7.56242e-06
4.0628e-05 6.36418e-05 -6.72547e-05
0.000301616 -0.000173961 7.07403e-06
-7.87965e-05 -2.67031e-05 -1.93924e-06
0.000711474 0.00077944 -0.000323177
-0.000680268 0.000914894 8.96159e-05
2.49359e-05 -6.69342e-05 -1.31919e-05
-4.05224e-05 -2.71444e-05 0.000223802
-0.000459103 -0.000117445 0.000283948
-0.00112956 -0.000212783 0.000409769
0.000158677 -9.26684e-05 0.000465272
0.00098664 0.000572485 0.000899559
0.0010633 0.000992512 0.00162761
-3.77835e-05 -0.00311179 0.000131484
3.43191e-06 6.08704e-06 -1.10602e-05
3.26614e-05 0.000289874 0.000162952
-0.000579951 0.000111848 -0.000168548
-2.20189e-06 2.29768e-05 4.92715e-05
-5.76552e-05 -1.5499e-05 -1.02749e-05
1.42114e-05 -1.84027e-05 6.47081e-06
4.58263e-05 -1.38458e-05 -9.19459e-06
0.000359623 -0.000131238 -4.69919e-05
0.000120449 -0.00028797 0.000454011
-0.000132422 -7.39782e-05 0.00014376
-4.90709e-07 -0.000409918 -0.000145438
-0.000104603 -4.65715e-05 -3.80292e-05
0.000642891 -0.000149188 0.000200419
-6.70704e-06 1.83062e-06 -7.08456e-07
-0.000224548 9.15363e-05 0.000355611
-3.99345e-05 -1.2625e-05 -3.14461e-05
0.000565034 0.000523943 -0.000213754
0.000162748 -0.000282283 -0.000153512
0.000153458 1.14856e-05 -0.000101685
8.14593e-06 -6.85844e-06 6.48428e-06
0.000390964 -0.000135704 0.000126909
0.000221811 -5.7444e-05 0.000164102
-0.00012586 -6.84802e-05 4.02895e-05
7.61086e-06 2.99987e-05 -3.40149e-05
-6.3956e-05 3.74621e-05 6.16228e-05
-2.06924e-05 -1.66493e-05 -3.06629e-05
-9.0033e-06 -2.53498e-05 2.51738e-06
-2.56427e-06 -8.81127e-07 2.96172e-07
1.79066e-05 -1.85509e-05 -1.75406e-05
-0.000215421 2.33152e-05 2.31692e-05
5.51074e-05 -2.66869e-05 -8.79547e-06
-8.47866e-05 8.4176e-05 9.66669e-06
8.42959e-06 4.40622e-06 1.91024e-06
5.7894e-06 -4.7581e-06 6.58758e-06
-5.08378e-05 8.94318e-06 5.34196e-06
-2.43143e-05 -1.56948e-05 1.37043e-07
-1.67018e-07 6.34675e-07 -1.47498e-06
-1.40893e-05 -5.66921e-06 2.3484e-05
0.0001771 0.000143485 -4.10218e-05
-1.10692e-05 -1.18335e-05 -1.23338e-06
1.69418e-05 -4.49867e-05 -4.29486e-05
1.91307e-05 2.01809e-05 5.16967e-05
-4.26709e-06 -0.000104446 0.000162609
0.000498159 -0.000731377 -9.56439e-06
0.000252473 -0.000677528 -0.000168286
2.44849e-05 -1.9338e-05 -3.67603e-05
-0.000283987 -0.000185492 0.00020095
-0.000189369 -0.000221786 -5.24162e-05
-8.44473e-05 9.65682e-06 -0.000183284
-5.82554e-05 -9.36525e-05 -4.80108e-05
-0.000249942 -9.43105e-05 0.000128218
-2.74665e-05 6.1705e-05 -0.000347876
1.21955e-05 -3.16828e-05 -2.51223e-05
0.000193657 0.000282509 -4.88941e-05
0.000298895 -1.59406e-05 -1.49167e-05
-7.36344e-05 0.000384234 0.000155565
-0.00034052 -0.000179586 4.7372e-05
-9.05338e-05 -0.000185164 2.21608e-05
7.56566e-05 4.43296e-05 -6.77351e-06
0.000136837 -7.72414e-07 3.36392e-05
-0.00121502 -0.000461207 -0.000151854
8.66709e-05 -0.000131712 -6.80702e-05
-1.78594e-05 -0.000118695 -5.88529e-05
-3.46037e-05 -2.52255e-05 -4.3095e-05
2.19436e-06 -3.87256e-05 3.5615e-05
-5.07619e-05 -2.75067e-05 7.63208e-05
-9.29763e-05 -0.00031486 -7.20939e-05
-0.000266665 -5.26749e-05 0.000189318
-5.83076e-05 1.60839e-05 6.1978e-05
0.000133763 -0.000157179 -8.01029e-05
3.41939e-05 0.000166661 -4.51658e-05
-5.58727e-06 -6.92449e-06 6.90185e-06
-3.85795e-05 -4.35192e-05 -1.12792e-05
-3.34802e-07 -3.8986e-06 -8.44236e-06
9.8676e-06 -2.94037e-05 2.87338e-06
-4.72782e-05 -4.23368e-05 8.12603e-06
-3.31674e-05 -5.60905e-05 -1.24782e-05
3.61956e-05 -1.1123e-05 -3.07538e-06
1.2334e-05 2.45703e-05 -2.87041e-06
-8.0651e-06 7.66646e-06 -1.77745e-05
-0.000672146 -0.00217977 0.00359624
4.33645e-06 1.96577e-07 1.59586e-06
-1.97141e-05 -1.86479e-05 2.98467e-05
1.40525e-05 -1.58962e-05 6.86364e-06
0.000143772 -4.23674e-05 3.59729e-05
-8.14374e-05 -9.9123e-07 3.86394e-05
-1.55805e-05 -3.85956e-06 -1.58467e-05
-8.41618e-05 -5.82782e-05 -9.93289e-05
-4.67522e-07 -7.51409e-07 3.17436e-06
-1.91496e-05 -1.4619e-05 -1.90877e-06
-0.00144348 0.000354833 -0.000840751
2.64026e-05 4.90641e-05 6.89351e-05
-5.16856e-05 1.21223e-05 -1.63553e-05
1.30815e-05 2.87926e-05 -3.88843e-05
-2.49075e-05 6.07636e-06 -1.04989e-05
0.00045905 -0.00050347 -0.000123302
1.2152e-06 -0.000123715 2.74418e-05
1.17969e-05 1.46455e-05 -0.000115559
0.000601916 0.000149817 -0.00020916
-0.00121177 -0.000983197 1.32133e-05
-0.0011297 -0.000129413 -0.0004614
8.86864e-06 1.49291e-05 1.63017e-05
0.0031984 0.00348427 0.000759373
-0.00102635 -0.00138686 0.000961465
0.000149656 0.000288659 0.000471247
0.000184662 0.000134911 2.45506e-05
0.000232246 0.000303479 1.95038e-05
0.00166125 -0.00041952 -0.00129075
-0.000346997 0.00051385 -0.000586979
0.000516233 -0.000461529 -0.000525009
5.41598e-06 0.000207522 -5.11065e-06
-4.79977e-06 -3.3433e-05 -2.59776e-05
-0.000298193 -0.000103763 3.07663e-06
-0.00257393 0.0107874 -0.00097611
0.00119874 2.38086e-05 0.00820255
-2.37822e-05 2.86662e-06 -0.000545208
0.000342867 -4.63436e-05 -2.48985e-05
0.00167914 0.00139201 0.000913013
-4.05459e-05 0.00140318 0.00291632
0.00348928 -0.00030284 0.000616531
-0.00159518 -0.000582976 0.000605362
9.07529e-06 3.80624e-05 -0.000233632
-4.06648e-05 -4.29631e-05 -4.06799e-06
-0.000241114 0.000242135 0.000146798
-0.00110612 0.0024353 -0.000302183
-0.000105443 -1.23589e-05 2.47398e-06
0.000568409 -0.000310177 0.00020643
0.00292455 2.71081e-05 -0.00224261
-1.11231e-05 0.000338224 0.00023762
-3.05777e-05 -0.000114324 -1.59161e-05
-8.25321e-05 9.36922e-05 -1.32322e-05
-3.25253e-05 -2.65247e-05 1.69731e-05
5.6629e-06 1.7498e-05 6.16549e-07
5.93511e-06 -6.06604e-06 -2.60824e-05
-4.28977e-05 -9.39129e-05 -2.39885e-05
4.3853e-05 2.10265e-06 -1.63745e-05
-7.63477e-05 -8.32553e-05 7.75598e-05
0.000516367 0.000519186 -7.4088e-05
0.000100003 7.55729e-05 3.6205e-05
0.000142666 -0.000126979 7.32218e-05
-1.4179e-05 -1.25279e-05 -1.64117e-05
-3.18201e-05 4.24177e-05 -4.9373e-05
4.32292e-05 -0.000130427 9.55732e-07
0.000849628 0.000379995 -0.00036776
-7.60342e-05 7.6911e-05 2.79394e-05
1.66775e-05 -0.000241768 0.000184825
7.45972e-05 1.47577e-05 9.21594e-06
-4.5054e-05 1.63133e-05 -6.95367e-08
0.000709356 -0.000882812 0.00111818
0.000596717 -0.000533021 0.000390165
-1.853e-05 1.85401e-05 6.37625e-06
-6.05672e-05 6.05997e-05 -6.74284e-06
5.74468e-06 -6.17255e-06 8.5337e-08
0.000125556 -0.000114197 2.22891e-05
1.41076e-05 1.32715e-05 -6.37246e-05
8.93163e-05 7.11114e-05 3.34604e-05
-2.90453e-06 -5.27924e-06 -1.5408e-05
1.31418e-05 -5.67119e-05 3.94554e-05
5.2932e-05 7.32893e-05 1.73623e-05
-2.093e-05 1.1733e-05 -1.03454e-05
-4.97203e-05 0.000266301 8.10776e-05
-3.41286e-06 1.89157e-05 -4.65566e-05
0.000150569 -0.00090209 -0.000330128
0.000131766 -4.29548e-05 9.50268e-05
-9.69632e-07 4.65784e-07 -3.78353e-05
-4.61681e-06 -1.72281e-06 -2.78814e-07
9.52191e-07 2.55142e-06 -7.98999e-07
-4.05314e-05 1.11367e-05 2.87521e-05
-0.00030142 0.00011397 -4.66818e-05
8.99683e-05 0.00010722 9.84614e-05
0.00177112 0.00366688 0.00138585
-4.26333e-05 6.57997e-05 0.000211456
8.36718e-06 -1.19092e-05 1.20286e-05
-0.000384503 -0.000749601 0.000874639
-4.96934e-05 5.14112e-05 3.07743e-05
-0.000817177 0.000126691 -0.000482414
-1.20877e-05 3.55565e-06 0.000381482
-0.000280135 0.00026908 -0.000213015
0.000219936 -0.000424925 -0.000247509
-0.000735393 -0.000835293 0.000217314
-0.000817181 -0.00068782 0.000336984
0.000190981 5.64115e-06 -1.82468e-05
1.86878e-05 -1.9751e-05 2.0721e-05
-2.33378e-05 -1.25154e-05 -1.73052e-05
-1.66031e-06 -5.24945e-05 5.60647e-06
0.000139148 7.85507e-06 -2.25333e-05
-0.000112027 -7.42264e-06 3.07605e-06
-0.000184642 -0.00060372 0.00014119
-5.80527e-05 -0.000180648 2.62128e-06
-0.000137215 0.000143147 3.40379e-05
-1.55246e-05 5.33722e-07 1.75976e-06
-3.47807e-05 5.3508e-05 -2.88527e-05
-2.11998e-05 1.52676e-05 -2.48496e-05
-0.000127984 -7.94953e-05 -5.83184e-06
-2.75442e-06 2.70559e-06 -6.24941e-06
-1.22183e-05 1.16566e-05 -3.30362e-06
0.00022594 5.3888e-05 7.57929e-05
-0.000123897 -7.4714e-05 9.73914e-06
-2.84074e-06 2.0463e-05 6.14593e-06
2.65757e-05 1.70676e-05 1.88617e-05
-1.77586e-05 1.75412e-05 -3.99484e-06
1.8314e-05 -6.92045e-06 4.78949e-06
2.55523e-05 1.40285e-05 -1.24039e-05
1.25434e-05 -1.25181e-05 7.15575e-06
-7.39417e-05 -5.44925e-05 5.24598e-05
7.90553e-05 -8.14792e-05 -0.000118915
5.60415e-05 5.59068e-05 -1.18732e-07
3.57138e-06 7.19292e-05 6.28082e-05
0.000243819 -5.04964e-05 1.79146e-05
-1.96465e-05 0.00026169 8.88153e-05
1.17166e-06 -1.69767e-05 3.46967e-05
-2.23724e-05 -3.28603e-05 6.70244e-05
-8.73594e-07 4.10631e-06 1.48956e-05
-3.94902e-06 1.30142e-06 -3.36294e-06
-1.47686e-05 -7.07887e-05 2.93305e-05
6.13603e-06 1.50682e-05 -0.000167821
-7.00226e-06 -0.00011386 4.81901e-05
-4.39384e-05 -3.1934e-05 5.69294e-05
6.39487e-06 -2.54771e-07 1.07335e-05
2.86903e-05 -6.61419e-05 2.20552e-05
0.000331164 8.05709e-05 8.92606e-05
0.000345509 -0.001999 -0.000245736
-0.00376434 -0.000777783 0.000594721
-0.000134219 -0.000273437 -0.000118236
0.000380629 0.00175932 1.19242e-05
-0.000427983 6.14673e-05 -0.000386816
-0.000151559 -0.00247885 -6.30453e-06
-0.000153537 -0.000302078 0.000257712
-0.00285075 0.000228294 0.00128227
-0.000426671 0.00170835 -7.54162e-05
-0.000314572 0.0001791 0.000142956
1.06322e-05 -9.56567e-06 1.81058e-05
-9.71707e-05 0.000362917 -3.02031e-05
1.15824e-05 9.50055e-06 -7.28935e-06
6.97932e-06 -7.3532e-06 1.42528e-05
0.000143508 -0.000429413 -0.000177983
-0.000194071 -0.000178807 0.000214995
-2.95625e-05 -2.85876e-05 5.49449e-05
2.97357e-05 -6.17449e-06 -3.14267e-05
-1.87298e-05 -3.90112e-05 -5.23782e-06
4.79764e-05 -7.01691e-05 5.83835e-06
7.90368e-06 6.3351e-07 3.74492e-06
0.000139406 2.51766e-05 1.66812e-05
1.53314e-06 0.000216039 -2.7014e-06
-0.0011621 -0.000640341 0.000440917
-2.35569e-06 2.51779e-06 -2.66809e-05
0.00017381 -0.000342383 0.000194143
0.000139393 8.4277e-05 -0.000120572
-0.000122084 0.000118823 2.42915e-06
-0.000563651 0.000555652 0.000927388
-0.00010014 1.18353e-05 -1.70583e-05
-5.05965e-05 -0.000147068 -0.000298584
-2.63937e-05 -7.88073e-05 2.78402e-06
-5.33948e-06 5.26137e-06 1.16505e-05
-6.37036e-05 -5.06309e-07 -2.59852e-05
2.02916e-05 6.18732e-05 -2.84452e-05
-8.11765e-05 8.002e-05 5.93344e-07
1.54521e-05 8.68957e-06 -5.42012e-06
1.1152e-05 -1.05939e-05 8.26254e-06
1.3377e-05 0.000209783 7.45351e-05
-5.22765e-06 5.69651e-06 -9.19027e-06
6.24599e-05 -3.02593e-05 -5.65182e-06
1.99968e-06 -6.08016e-06 -2.64414e-06
2.43568e-05 1.22802e-06 2.48365e-05
5.52734e-05 2.31253e-05 5.93336e-05
-1.58746e-06 -5.24093e-06 -5.57244e-06
0.000241315 -9.15471e-05 -0.00020438
-5.89314e-05 0.000116041 0.000131015
8.93465e-06 -5.54172e-05 -1.79754e-05
0.000149934 -9.21341e-05 0.000132895
-5.38299e-06 5.51038e-06 -1.63053e-05
-1.1171e-05 -2.59106e-05 4.04635e-06
-4.16107e-05 -8.51509e-05 1.33329e-05
4.24225e-07 -5.39824e-07 1.0072e-07
-6.58929e-06 -6.06846e-06 -1.77284e-06
-1.88981e-05 2.3004e-05 3.36263e-06
0.000105057 -9.72488e-05 -0.000352205
-0.000236376 5.63211e-05 2.8585e-05
-0.00124348 8.13541e-05 0.000102697
2.7388e-05 0.000141699 8.6727e-05
-8.04562e-06 -1.97499e-05 1.80188e-06
1.44366e-07 2.02398e-05 2.5448e-05
-0.000335641 0.000220222 0.000207705
0.000214308 4.7079e-05 0.000106409
-0.00218405 -2.49409e-05 0.00219198
-4.4051e-05 3.81324e-05 0.000308521
0.000326999 0.000360239 -4.41925e-05
7.80113e-05 6.1844e-05 -0.00174823
0.000383435 9.25266e-05 0.00191231
0.000271431 0.000173983 -0.0033346
-0.000104737 -0.00113689 0.000292921
-0.000297726 -2.32643e-05 -6.73129e-05
1.39546e-05 -0.000128164 -4.25423e-05
-0.000415344 -0.000893527 1.2338e-05
0.000128005 -0.00017916 -2.22577e-05
-6.29184e-05 -6.7916e-05 3.36872e-05
6.19928e-05 1.8102e-05 -1.43803e-05
3.97777e-05 -9.30662e-05 -8.42653e-05
-2.52538e-05 2.39179e-05 -5.00693e-05
2.09051e-05 -2.69664e-05 1.08621e-05
-8.72196e-06 -1.58462e-05 -3.32296e-05
4.33551e-05 0.000102324 -0.000927019
-5.98628e-05 -9.30221e-05 -6.37548e-05
-2.25185e-08 -3.57464e-08 -1.26908e-05
6.3962e-06 2.70763e-05 -1.37077e-05
0.000123764 0.000204144 6.77608e-06
-9.22832e-06 -6.86324e-06 3.05013e-06
-9.75097e-06 -2.59959e-05 1.5048e-05
1.85747e-08 -1.94284e-08 -7.47988e-09
2.04108e-05 1.0027e-05 1.44016e-05
-1.51315e-05 1.53341e-05 5.55129e-06
4.88131e-05 7.51216e-06 -1.49752e-05
2.14266e-06 -9.97673e-07 3.6329e-06
-5.24278e-07 5.41902e-06 1.2978e-05
-3.38553e-05 5.2177e-06 -7.08e-08
2.00383e-05 -7.10071e-05 -6.05642e-05