<?xml version="1.0"?>
<VTKFile type="UnstructuredGrid" version="0.1" byte_order="LittleEndian" compressor="vtkZLibDataCompressor">
 <UnstructuredGrid GhostLevel="0">
  <Piece NumberOfPoints="1059" NumberOfCells="1059">
   <PointData>
    <DataArray type="Float64" Name="Elongation" NumberOfComponents="3"/>
-1.56702e-05 -2.39556e-05 -5.13891e-06
-8.03725e-06 -5.00882e-06 -1.3412e-05
0.00228541 0.00390395 0.000324688
8.11274e-05 7.10074e-05 0.000121198
2.24031e-05 9.54448e-05 0.000132179
0.000475008 0.00040735 -0.000130994
1.32343e-05 1.2675e-05 -1.78454e-05
-3.45431e-05 -3.38854e-05 -4.67715e-05
-1.89862e-05 -1.16486e-05 1.81877e-06
-0.00012149 -8.30694e-05 -1.72787e-06
3.43663e-06 4.98425e-06 8.4872e-06
1.92344e-06 6.11915e-07 -2.21016e-06
7.46616e-06 1.29632e-05 -1.28321e-06
0.0003642 0.000298487 -7.22449e-06
0.0014656 0.00163188 -0.00118126
0.000648846 0.000531769 0.000293415
0.000284198 0.000378415 0.000605994
0.000174181 0.000113603 1.37121e-05
-2.74578e-06 -1.35832e-06 -1.59668e-06
-0.000398703 -0.000427266 0.00027372
-0.00187466 -0.00246082 0.000893448
-1.32899e-05 -1.49691e-05 2.81143e-06
-2.8741e-05 -6.05739e-05 -3.43233e-05
4.41261e-06 2.19855e-05 3.88501e-05
5.10247e-05 6.6607e-05 4.2751e-06
-2.44415e-05 -2.43124e-05 -1.21768e-05
-0.000158416 -8.1843e-05 -0.000288215
0.000112031 0.000138169 2.84676e-05
3.97391e-05 5.97138e-05 -4.36004e-05
9.94683e-06 1.19118e-05 3.57242e-07
3.3878e-05 2.65083e-05 5.57327e-05
0.000377338 0.00053336 -0.000183457
2.20556e-05 1.26109e-05 6.10552e-05
-8.8636e-05 -0.000134222 -3.67231e-05
3.8901e-06 -1.90409e-05 5.77049e-05
0.00253159 0.00224301 7.35906e-05
0.00307762 0.00565781 0.00304565
-6.24045e-05 -3.49276e-05 0.000162944
0.000175566 0.000285489 4.88829e-05
1.11292e-05 1.11986e-05 -1.15883e-05
3.32819e-05 6.51523e-05 3.37124e-05
7.56312e-08 6.40792e-07 1.09803e-06
-0.000142862 -0.000199116 0.000211121
-3.2582e-05 -3.56231e-05 -3.06386e-05
0.000410355 0.00063427 1.75924e-05
0.000502984 0.000761598 2.67856e-05
-0.00105562 -0.00152999 -0.00023984
-3.45173e-06 -5.64513e-06 1.08239e-06
1.03804e-05 2.31913e-05 -1.64892e-05
0.000149557 0.000201449 4.64316e-05
1.80414e-05 4.39342e-05 -3.68872e-05
-6.01646e-06 -7.3164e-06 -4.21186e-06
-4.42821e-05 -5.08843e-05 1.6308e-05
-5.86031e-05 -2.66063e-05 2.46802e-05
1.50074e-05 -1.61805e-05 -5.94015e-06
0.00292906 -0.00271951 -0.00507959
6.91646e-05 -8.47522e-05 -5.08473e-05
-1.27213e-05 1.33592e-05 1.31857e-05
0.000339415 -0.000369149 0.000113837
0.00041915 -0.000384488 -7.72199e-05
2.45573e-05 -2.72049e-05 1.20581e-05
0.00154988 0.00185399 0.000560238
2.00494e-05 -2.35301e-05 1.39413e-05
5.89136e-06 -5.68476e-06 6.62638e-07
-5.59833e-07 1.0483e-06 -1.51349e-06
1.29747e-06 -5.21424e-06 1.18996e-05
4.31033e-06 -4.70208e-06 2.09767e-06
-1.24732e-05 1.21178e-05 -8.15515e-06
0.000263718 0.000557594 0.000243514
-5.27376e-05 4.04607e-05 -3.26956e-05
-6.75401e-06 5.26285e-06 -2.86354e-06
0.000432025 0.000297891 0.000186918
-4.01544e-06 4.94891e-06 3.50979e-06
-4.89983e-07 5.90585e-07 3.9379e-07
7.3406e-06 -7.77531e-06 -2.91248e-06
2.33725e-05 6.60528e-05 4.97262e-05
-0.00113775 0.00248537 -0.00684426
0.00318155 -0.00192738 0.000879796
5.06627e-05 2.87822e-05 -1.68046e-06
-0.000161183 0.000294344 -7.21488e-06
0.00184459 -0.00121194 0.000399672
-9.18975e-05 6.58355e-05 -4.9738e-05
-2.00049e-05 4.71816e-05 -3.19055e-05
2.42634e-06 -5.15019e-06 2.48886e-06
4.49212e-05 -0.000120384 0.000106571
3.70465e-06 -2.5592e-07 -1.21707e-05
0.00399799 -0.00257455 -0.00264979
5.31331e-05 -9.87933e-05 -1.93187e-05
4.75877e-06 -1.46575e-06 5.47053e-06
2.93691e-05 -5.18542e-05 -1.00324e-05
1.73537e-05 -2.79953e-05 8.25522e-07
2.04224e-05 1.82677e-05 1.43117e-07
0.00211193 -0.00224141 -0.000958822
0.000285713 0.000778688 0.00477037
-0.000362199 -9.5057e-06 -0.00144235
1.36865e-05 3.2304e-05 1.78172e-05
-0.000146893 0.000104183 2.06883e-05
1.18909e-05 -2.67069e-05 6.10838e-05
4.80143e-05 -5.43586e-05 5.41099e-05
-8.23721e-06 -1.34495e-05 1.01672e-06
-1.48879e-06 2.26221e-07 3.01229e-06
-0.00277527 0.00409147 7.2615e-05
-5.2188e-05 3.53127e-05 -2.50028e-05
-0.000143106 9.947e-05 -7.73109e-05
-0.000144447 0.000115735 2.07225e-05
-1.83266e-05 -2.4642e-05 -3.92415e-05
-8.55064e-06 7.79921e-06 2.70847e-06
-3.339e-05 2.55638e-05 -6.91995e-06
4.75954e-06 -3.67505e-06 8.30464e-07
-0.00109992 0.000957455 6.14732e-05
7.58516e-06 -8.72464e-06 -7.15591e-07
-2.21562e-06 2.33556e-06 -1.68504e-06
-2.12503e-05 1.5336e-05 2.59337e-05
8.53048e-05 -0.000131822 0.000197623
-3.31792e-06 2.80147e-06 9.79386e-07
0.0004494 -0.000386759 3.64132e-05
-4.27656e-06 5.92725e-06 1.59257e-06
-3.13386e-05 -8.17656e-06 -0.000173602
-0.000195195 0.000375023 0.000449099
0.000217259 -0.000237414 -0.000204957
-1.38211e-06 6.41715e-08 -3.15552e-06
-6.49491e-06 7.22287e-06 8.14917e-06
7.28978e-05 -6.14401e-05 1.55213e-05
-0.000105927 0.000120191 6.30904e-05
1.11039e-06 -1.05149e-06 7.86452e-09
1.65736e-05 1.06321e-05 -3.43778e-06
-2.28641e-05 -1.0706e-05 -8.53005e-06
2.19994e-06 -7.74453e-06 -2.1303e-05
-7.87543e-06 -2.31724e-05 7.13191e-06
-3.89427e-06 -1.36694e-05 -1.38696e-06
9.55349e-07 -6.88583e-05 -4.3291e-05
0.000131286 -0.000351069 0.00110111
-0.00216196 0.0117278 0.00257159
3.08699e-05 4.13368e-05 2.33332e-05
3.10514e-05 1.81482e-05 -6.71407e-07
-0.000167856 -0.000159002 -1.46975e-05
1.42307e-05 4.19076e-05 -3.49874e-05
-0.000218913 0.000124069 0.000147281
7.66348e-05 8.48219e-05 8.09565e-05
2.19452e-06 9.44594e-06 -5.25195e-06
9.79545e-06 -2.43973e-05 -3.88935e-06
1.62039e-05 -3.48442e-07 -3.5052e-06
1.11882e-05 2.2051e-05 2.0653e-06
1.62595e-06 -9.96962e-06 7.63395e-06
-1.59272e-05 3.71847e-05 -4.41752e-05
-6.08792e-06 -7.04471e-05 4.38378e-05
1.33093e-05 -6.84524e-06 -3.98797e-05
0.00017961 3.49243e-05 -1.53363e-05
-0.000432009 -0.000282078 0.00248301
-0.000131865 -0.000139398 0.000301478
0.000402658 -0.000116248 9.18358e-05
1.49444e-05 -0.00021832 -0.000352307
-0.000372748 -0.000252694 -0.00126379
-4.96398e-05 2.59934e-05 -1.80457e-05
4.39895e-05 2.97679e-05 -3.79275e-05
-5.97475e-05 -8.82765e-05 -0.000114125
-1.17783e-05 -3.51102e-06 2.99245e-05
-8.92335e-05 -2.29002e-05 0.000103942
-1.13795e-06 -1.1836e-06 -2.0146e-05
0.00031971 0.000602483 -0.000416254
-0.000125645 2.9472e-05 -0.000130344
1.62723e-05 -4.95632e-05 0.00127932
-3.17745e-07 -2.2297e-05 -2.15047e-05
0.000198439 0.000480195 0.000199949
-0.000145065 2.34408e-05 -8.91824e-06
-2.42522e-05 -2.48257e-05 -2.3429e-06
2.62182e-05 2.62076e-05 9.76561e-06
2.04307e-05 2.01975e-05 -1.0067e-05
-2.95861e-05 -3.89072e-05 7.54389e-05
1.43788e-05 1.06197e-05 2.82671e-05
1.8356e-05 -0.000161366 -4.04567e-05
0.00500793 0.00260588 0.00351826
0.000341253 0.0018261 0.000784736
-0.000136087 3.79183e-05 0.000225742
-0.000190046 -0.000586051 -0.00029074
0.00339978 0.00470352 -0.00591908
0.000519313 -0.000356898 -0.000135604
0.00730036 0.00440756 0.000964929
-1.28367e-05 0.000167699 5.8406e-05
0.000250817 -0.000223799 0.000981772
-0.0041267 0.00104454 0.000512433
-5.54815e-05 5.48818e-05 -7.71638e-07
0.00123086 -0.00169178 -0.000652504
-0.00119351 -0.00189192 0.000724221
0.0018168 -0.00185471 0.000261225
0.00108676 -0.00105847 -0.00053578
-0.00010294 0.000172347 -6.96227e-05
-0.00091057 6.46889e-05 0.000122151
-5.05889e-07 1.52314e-07 -1.09495e-06
-3.86824e-05 -4.51507e-05 2.23318e-05
-6.50671e-05 4.16134e-05 -2.79522e-06
1.84695e-05 1.86036e-05 -8.03408e-06
2.78823e-05 -7.1653e-05 8.2364e-08
-5.91632e-06 -0.000104789 3.3019e-05
3.55231e-07 -3.78792e-06 1.28281e-05
-0.000316031 0.000139861 0.000138291
-3.79356e-06 1.78665e-05 9.13764e-05
-9.51974e-05 2.3502e-05 -0.000112918
3.81355e-05 6.348e-05 -2.81624e-05
1.3845e-05 9.83147e-06 -5.0877e-07
-1.78883e-06 3.00907e-05 0.0001898
0.000133928 0.000138405 0.000368312
-3.61695e-05 0.000234903 -0.000106037
0.00499651 -0.000366433 -0.00270712
-0.000105609 -0.000730452 -0.000962837
0.000991391 0.00068234 -0.000624549
-0.000247632 4.15494e-05 -0.000151907
-0.000192841 0.000201782 -0.000149669
-2.59749e-05 2.81924e-05 6.44309e-06
-2.38711e-05 -6.03046e-05 -9.74166e-05
-0.000586018 -4.44204e-05 3.97522e-05
0.000101203 0.000202435 -0.000496922
9.71967e-05 0.00014287 -0.00037341
0.000915295 -0.000351305 0.00384077
0.000834493 0.00039992 0.000222273
0.00158558 -0.00538349 0.00394661
0.0020118 0.00183752 0.00491546
0.000357252 0.000351734 -0.000142545
-0.000210994 0.000371813 -1.80692e-05
0.000262986 0.000169994 0.000153391
-7.97938e-06 5.47386e-06 0.000333647
0.00229616 0.00241675 0.00155928
-0.00118756 -0.000601869 0.00021676
-0.0001527 -0.0001712 -0.00315508
-0.00285159 0.00189486 -0.000410158
0.000859804 -0.00158205 0.00569474
-0.000763085 -9.73783e-06 0.000377573
2.3648e-06 -0.0011672 -0.00228896
-0.0013062 -0.000395951 0.000459268
0.00115959 -0.00110082 0.00312467
-0.000104169 -0.000679378 -0.000324774
-0.00203039 -0.000596701 -0.000855782
-0.00168314 0.00171626 -0.000412582
5.25062e-05 0.000153733 0.000152557
0.000143024 -0.000114254 -3.41456e-05
2.72926e-06 -2.72211e-06 -4.29664e-06
9.72369e-06 -1.62266e-05 -1.36665e-06
3.7476e-05 -4.23587e-05 -4.96249e-05
-1.67924e-05 -1.58148e-05 1.61192e-05
1.99598e-05 5.36565e-06 1.49428e-05
1.94233e-05 -0.000113145 -2.56287e-05
1.52451e-05 -8.01471e-05 5.96203e-05
3.67111e-05 2.54483e-05 3.65964e-05
-0.000149189 -1.2449e-05 -0.000102529
-0.000345623 -8.33177e-05 -0.000242811
0.00010067 -9.97287e-05 -8.42435e-05
1.45588e-05 -1.44689e-05 5.67523e-05
-0.000102748 0.000109744 7.35227e-05
4.6131e-05 -3.69753e-05 -6.96363e-06
-6.02096e-06 -1.10989e-05 -2.01053e-06
0.000445707 0.000231648 0.000361573
3.93469e-05 -9.54306e-05 4.94698e-05
3.55419e-05 -5.55244e-07 -7.52178e-05
1.76664e-05 -8.22439e-05 5.5264e-05
-4.43563e-05 -7.29629e-05 -0.000110658
-4.87527e-05 -0.000201477 4.40662e-05
-0.000118229 8.59182e-05 0.000260092
0.00172323 -0.000794761 -0.00557816
-0.000136625 -0.000214272 -6.50877e-05
0.00204257 -0.00365883 -0.00356309
-1.44509e-05 0.000147822 9.74663e-05
0.000360391 -3.84214e-05 9.24033e-05
-0.000103797 -0.000114076 -0.000113804
-0.00121797 -0.00119529 -0.00015299
5.78841e-06 5.70062e-06 -1.20439e-05
0.000171954 -0.000163065 1.35317e-05
-0.000137419 -0.00807403 0.00416711
-0.00172973 0.000372099 0.00126651
-0.00685507 0.00162585 -0.00336659
0.000640793 0.000182644 -0.000168423
-0.00153191 -0.000360772 0.000375942
0.00040526 0.000429392 -0.000460794
0.000709589 0.000426555 0.000455048
-4.57025e-08 -2.45206e-06 9.67758e-06
1.92738e-05 -1.8009e-05 -6.87021e-06
2.3378e-06 -2.43425e-06 -2.35158e-06
1.64071e-06 -7.97215e-06 -7.00101e-07
-1.47586e-05 -1.21717e-05 -1.15415e-07
-1.52639e-05 -1.01776e-05 1.48348e-05
6.23467e-05 2.30052e-05 -0.000111117
3.80792e-05 -8.15136e-05 -0.000124836
-4.66646e-06 4.02309e-06 -6.69848e-06
3.98426e-05 1.42893e-05 -9.31974e-06
-2.0192e-07 -1.72483e-06 1.92487e-06
-4.02992e-05 4.70678e-05 1.58042e-05
-4.31449e-05 -4.70453e-06 3.75546e-05
5.44074e-06 -5.46478e-06 -1.21868e-05
-0.000238577 0.000231038 4.69503e-05
1.56075e-05 1.56126e-05 8.55787e-06
-6.22085e-06 2.22361e-05 6.21983e-06
2.71334e-05 1.61552e-05 2.2508e-05
9.64873e-06 -2.34939e-05 5.87782e-06
1.88709e-05 2.84446e-05 5.2426e-05
2.07026e-05 -8.73533e-06 3.46804e-05
9.61432e-06 7.20973e-06 4.56216e-06
4.67206e-06 4.96189e-05 2.26071e-05
3.68812e-05 -4.65791e-05 1.01982e-05
-2.56474e-05 1.13682e-05 -8.33294e-06
4.487e-05 6.2468e-05 9.65256e-05
-2.39962e-05 1.04134e-05 -8.12015e-05
0.000570183 -0.000119045 0.000117852
-0.00174896 -0.000456628 -0.00139921
-3.87559e-05 0.00011933 2.09907e-05
0.00013764 4.89043e-05 0.000119377
0.000224193 0.000252669 7.47517e-05
-6.74027e-05 6.86366e-06 3.20595e-05
0.00109848 0.000411271 0.000655225
-0.000345907 0.0017573 -0.000348725
-0.000223521 5.09867e-05 -0.000255423
-0.000641987 -0.00105043 0.00144059
-0.000445915 -7.45912e-05 -1.86439e-05
-7.01541e-05 5.71025e-05 -4.59453e-05
-1.33215e-05 1.78158e-06 3.39506e-05
-0.000126296 3.01407e-05 1.05231e-05
-0.000179834 -0.000219128 -7.97409e-06
-2.63833e-05 0.000107833 7.77501e-06
3.80082e-05 -0.000225079 -6.92492e-05
-0.000256937 0.00270905 0.000550657
-0.000116192 0.000868177 0.000149694
-0.000170076 -5.57946e-05 -5.60985e-05
-0.00144508 0.000558781 -0.00193956
0.000283826 0.00136722 0.000124557
0.00137309 -0.00156321 0.00107822
-0.000162909 7.4752e-05 -3.67155e-05
4.48318e-06 -0.000137463 -2.29486e-05
6.77775e-05 2.44805e-05 1.80378e-07
-0.000167383 -1.22592e-06 0.000197749
-2.06152e-05 3.6077e-07 5.69032e-05
-1.59401e-05 -1.49417e-05 -8.83299e-07
-1.92749e-05 -2.60582e-06 -2.75764e-05
2.78088e-05 -8.7682e-06 1.31748e-05
1.17463e-05 -2.67185e-05 -1.65222e-06
5.96276e-05 2.03447e-05 9.03084e-07
-3.72533e-05 1.08529e-05 6.02297e-06
-8.67414e-06 1.7968e-05 1.79098e-05
-2.24523e-05 6.56801e-05 -2.26721e-06
-0.000139608 1.53288e-06 -7.39782e-05
6.44808e-05 -6.58628e-05 7.3615e-05
4.22982e-05 3.22318e-05 -2.82486e-05
5.54305e-06 -1.66118e-05 8.8152e-06
-1.56383e-05 -3.90341e-05 3.80807e-06
-0.000377659 -0.00012582 0.000114203
0.00013982 -0.000118257 8.17916e-05
-3.92803e-05 -6.99971e-05 -3.13712e-05
-1.12099e-05 1.56782e-05 2.36233e-06
-5.74663e-07 -1.52632e-05 -2.84926e-05
1.15959e-05 -3.23675e-05 4.65207e-05
9.34397e-05 -0.000110165 -2.46412e-05
-3.73196e-05 -7.08286e-05 -4.28426e-05
7.65749e-05 -5.36053e-05 0.000103575
-2.83552e-05 0.000115968 -2.08728e-05
-0.000149342 -0.000114668 -8.19257e-05
0.00289833 -0.00149653 -0.00114684
3.39144e-06 1.88317e-05 -2.12066e-06
1.10357e-05 1.7202e-05 -1.98754e-05
-6.04367e-06 9.50463e-06 -6.18694e-06
-0.00154792 0.000850391 -0.000907767
1.19405e-06 -2.40493e-05 -1.90291e-05
-7.54744e-05 -4.79588e-05 -2.60063e-05
0.000163545 -7.15221e-07 -4.41931e-05
-5.89081e-06 -1.04468e-05 4.30708e-06
-0.000233619 -0.000170594 -1.7211e-05
9.20321e-05 -3.63824e-05 -0.000106422
8.11343e-05 0.000116645 0.000115746
8.9039e-05 -4.29738e-05 3.48264e-05
0.00012961 -0.000147389 0.000268626
0.000415291 0.000208226 -0.000223199
0.000357584 0.000292145 -0.000358811
-0.00011356 -4.84277e-06 0.000199223
0.000247433 0.000246501 -3.55732e-05
9.14973e-05 1.10117e-05 -5.30106e-05
-3.4022e-05 4.8336e-05 4.29275e-05
-0.000640955 -4.14226e-05 -2.86732e-05
1.81489e-05 6.29899e-05 0.000177237
-3.48525e-05 -8.63884e-05 1.48319e-05
0.000372368 -0.000172582 -0.000266433
6.59229e-05 -9.27391e-05 2.18963e-05
-0.000128506 0.000156937 -0.000135739
-6.68771e-07 1.58663e-07 3.00492e-05
1.1991e-05 8.02868e-06 -5.0547e-05
4.63651e-05 2.83108e-05 -6.49149e-05
-1.10064e-05 7.3116e-06 7.54951e-06
-0.000397138 -9.17056e-05 2.18393e-05
5.98024e-05 8.31245e-05 0.000135357
7.2323e-05 -3.51366e-05 -3.98613e-05
-2.10423e-06 -2.40518e-06 3.88343e-06
-4.86788e-06 -6.92518e-06 -1.47717e-06
-6.60519e-05 4.29934e-05 -0.000130244
-4.18717e-05 -1.39661e-05 2.70552e-05
-9.55256e-07 -4.16469e-05 -8.2776e-05
8.32255e-05 -5.01161e-05 -1.16188e-05
7.93909e-06 4.64147e-05 3.65272e-06
5.16586e-05 5.17034e-05 3.86017e-06
2.30346e-05 2.52947e-05 -2.1762e-05
0.000444494 -0.00357434 -0.000399399
-0.000168955 0.000214967 -6.2149e-05
0.000333826 -0.000160244 -0.000804337
0.000492972 0.00156144 -0.00166243
-0.00126321 -0.000414159 0.000611995
0.000550745 0.00111533 -0.00109995
-0.000382211 0.00277084 -0.00245715
0.000802701 0.00170376 0.000394178
6.46414e-05 -3.15653e-05 4.54425e-05
-3.48923e-05 7.1175e-05 1.3791e-05
-0.00593663 -0.000805396 -0.000260404
0.000165245 -0.000237767 -1.10822e-05
0.000430863 -0.00289119 -0.000173595
-0.00121306 -0.000334316 0.00382647
0.000143761 -0.000157306 -0.000148115
-8.97921e-05 0.000111009 0.000134998
-2.21543e-05 0.00013004 3.53001e-05
9.62015e-06 -1.60004e-06 2.58251e-06
-7.73555e-05 2.66477e-05 3.52512e-06
2.46671e-07 -1.91874e-06 4.76608e-06
-6.88331e-05 -7.9876e-05 3.57176e-05
-6.63908e-05 -0.000129227 2.72728e-05
-0.000321865 -0.000208263 -0.000148996
2.2073e-05 2.22692e-05 -3.12804e-06
-6.8237e-05 -6.69923e-05 3.13951e-05
-0.000248051 -0.00108981 0.000810457
0.000254314 -0.000647728 -0.00115315
0.000378607 -9.00074e-05 -0.000379667
1.30773e-05 -9.75213e-05 1.38034e-05
0.000364293 0.000463884 0.000434699
-0.00038363 1.22477e-06 -0.000230115
-0.000383726 0.000835657 0.00535131
-0.000335187 -0.0113705 -0.0040074
0.000207154 -7.70222e-05 0.000734337
-0.00641798 0.00815101 0.00195098
-0.00228263 -0.00622594 -0.000502814
-2.32167e-05 6.28376e-06 -0.000196847
-7.3203e-05 3.02414e-05 0.000108503
0.00012957 6.23694e-05 0.0001367
1.90297e-05 2.11302e-05 7.34193e-05
6.66659e-05 -4.35931e-05 3.51701e-05
-4.33764e-05 -1.65384e-06 -0.000137387
-0.000238099 -6.76811e-05 0.000129085
-0.000179971 -0.00115884 -0.000361797
-0.000679557 -0.000462206 -0.00184234
0.00039393 7.41893e-05 5.12142e-05
-0.000319549 -1.3041e-05 1.87153e-05
-0.00258812 -0.00070428 0.000922846
-0.00096902 -0.00335282 -0.000631211
-0.00129583 0.000169648 0.000601803
-8.9135e-05 -0.000132186 -0.000104328
-0.000101427 0.000269322 4.18929e-05
-0.000504988 -0.000469468 -0.000243464
-0.0001194 -3.93973e-05 -3.5009e-05
1.58276e-05 -1.39971e-05 3.63224e-05
0.000460306 0.000531932 -0.000274211
-0.000198592 -0.00025619 0.000162995
-8.98261e-05 -0.000211022 0.000107495
8.88353e-05 6.569e-05 -1.71116e-05
0.000612865 4.07596e-05 0.000581892
0.000370832 0.000248213 0.000246417
-0.000373843 -0.000606498 0.00125783
-9.35158e-06 -0.000301622 0.000120151
-0.000111477 -8.94188e-05 -0.000223935
-7.83373e-05 7.89589e-05 2.24236e-05
-1.1062e-05 3.2656e-05 6.60012e-05
3.05758e-05 3.04311e-05 -4.91964e-06
-8.13063e-07 -7.61244e-07 -3.06035e-06
-0.000131507 9.93065e-05 4.8141e-05
3.1857e-05 -6.34862e-06 8.53272e-06
-0.00033844 0.000268654 0.000191925
3.4247e-05 8.63018e-05 -8.84555e-05
0.000121222 -0.000286494 -5.48057e-05
-6.56624e-05 -0.000238506 -0.00016524
0.000893873 -0.000192573 -0.000153275
-2.73649e-05 -1.99198e-05 3.55691e-05
-1.55842e-05 -3.22356e-05 -4.27513e-06
8.41757e-05 0.000157589 -4.70138e-06
0.000310804 0.000423691 -0.000100064
-0.000411557 -4.36563e-05 3.51834e-05
-1.76933e-05 0.00162252 -0.000261501
-0.000349061 -0.000341998 -0.000383251
-3.20577e-05 -2.54815e-05 1.245e-05
-4.39389e-06 2.83374e-06 1.43065e-05
7.25145e-07 -4.34464e-05 6.88227e-05
-1.73416e-05 7.87441e-05 -6.36037e-05
-1.91826e-05 1.71264e-06 -0.000101184
-4.31726e-06 -4.38503e-06 1.09945e-05
0.000302992 -0.000353341 -7.66478e-05
0.00038024 -0.000161739 -0.00025301
0.00345896 0.00692792 -0.00302596
-0.00862637 0.00168226 -0.00197096
-0.000107478 -0.000397434 -0.000295225
0.000249529 0.000874993 0.000633771
-6.34967e-05 1.31539e-05 0.000135935
0.000376107 -0.000378476 -0.000737468
-1.68747e-06 -8.92203e-05 -0.000144202
0.00174959 0.00117438 -0.00251814
0.000518008 0.000161363 0.000300329
-2.87969e-05 -5.26796e-06 0.000229572
-0.00283274 0.000566866 -0.00518879
1.96821e-05 1.01459e-06 -3.93801e-06
-0.000309423 0.000161094 -0.000179552
-7.69462e-06 0.00014694 -0.000159044
-0.000137345 3.59644e-05 0.000126171
9.87928e-05 -0.000116596 -5.94201e-05
1.56281e-05 1.70737e-05 5.65626e-06
-1.47699e-05 4.65273e-06 3.20066e-05
2.78939e-05 2.07677e-05 3.93166e-06
-3.36048e-06 -1.53237e-05 -1.50941e-05
-2.58222e-05 -4.619e-06 5.36381e-06
-1.03787e-05 2.31464e-06 -2.85678e-06
-4.15496e-05 -2.2572e-05 3.50049e-05
-3.27961e-05 5.13472e-05 6.32793e-05
-2.52393e-05 1.35368e-05 1.68589e-05
-0.000101178 0.000100723 2.90218e-05
1.03094e-05 -6.16262e-06 7.29909e-06
-0.000129794 3.26447e-05 -2.9858e-05
-3.88531e-05 -3.85988e-05 7.78944e-06
8.67616e-06 -1.57637e-07 9.18283e-06
-8.47765e-06 1.90721e-05 -1.86377e-05
5.20164e-05 2.41633e-05 4.95289e-05
0.000118043 -2.13595e-05 -1.33317e-05
-0.000139831 0.000116129 0.00043364
-2.6048e-05 -4.61254e-05 -1.79832e-05
2.18374e-05 2.87358e-05 4.21049e-06
0.000438086 -5.66993e-05 7.27713e-05
-3.86388e-05 1.91239e-05 3.13351e-05
-3.21992e-05 8.87886e-05 9.59539e-06
1.73441e-05 -3.20172e-05 -6.7994e-05
-2.47347e-05 -3.60057e-05 1.685e-05
-5.43489e-05 -1.13157e-05 4.25901e-05
0.000556631 0.000372313 -0.000122179
-2.18348e-05 -4.72446e-05 -5.95864e-05
0.000172785 -0.000145017 -9.42417e-05
3.0837e-05 1.66083e-05 0.000135353
0.000935007 0.000523341 0.000361108
-7.1101e-05 0.00101868 0.000621528
0.000366314 4.99963e-05 -1.85269e-05
0.00143086 -0.000258067 -0.000376771
-0.00118163 -0.00151025 -0.000551407
-0.000105296 -0.000192651 3.76676e-05
8.10835e-05 3.03979e-05 -1.20685e-05
9.55853e-05 5.53676e-05 9.35254e-05
-2.88224e-05 -4.66928e-05 9.56755e-05
0.000124693 -0.000207405 -0.000435798
1.05012e-05 -5.04544e-05 0.000124975
6.08428e-05 0.000113284 5.71941e-05
-5.73256e-05 -2.76844e-05 3.74947e-05
-9.16246e-06 2.33132e-05 4.10265e-06
-0.000179132 0.000239116 -0.000209716
0.000117382 8.63478e-05 -3.06371e-05
-1.02902e-05 3.56922e-05 -4.62448e-07
3.46402e-05 5.53422e-06 2.45098e-05
-8.28546e-06 1.73623e-05 -5.06991e-06
1.61986e-05 -1.64615e-05 -1.19588e-05
-4.24831e-05 0.000113179 -2.34773e-06
-9.7043e-06 -1.19996e-05 -2.91436e-05
2.68987e-06 4.34308e-07 -2.68412e-06
1.48484e-06 -0.000127646 -6.09055e-05
7.49509e-06 -1.3748e-05 2.02654e-05
1.97245e-05 3.11175e-07 -7.27028e-05
-2.78384e-05 -5.29389e-06 5.36069e-05
-1.43084e-05 2.56409e-05 5.73735e-06
7.20553e-05 2.23362e-05 -3.61429e-05
6.36906e-05 3.35185e-05 1.05104e-05
5.13981e-06 1.04641e-06 -5.89693e-06
-1.21629e-05 -1.26558e-05 7.34223e-06
6.68354e-06 -7.14415e-06 -1.84697e-05
-6.73549e-06 -2.57834e-05 1.37685e-05
-0.00024081 0.000274065 0.000255387
-9.05268e-07 -2.71343e-05 -2.44249e-06
5.31949e-06 -2.17599e-05 -1.31218e-05
7.72885e-06 -5.61845e-06 2.44814e-06
-1.61722e-05 4.41989e-06 -2.77773e-05
6.72322e-07 -5.28861e-07 3.07849e-06
-4.38058e-05 -6.04355e-06 7.73451e-05
-1.16742e-05 3.29946e-05 5.6613e-05
-3.19997e-05 -1.88991e-05 1.91232e-06
0.000191637 -2.57595e-05 -4.70049e-05
-0.000157767 -7.66769e-07 -1.74932e-05
-1.19814e-05 -3.1968e-06 1.65578e-05
-1.2781e-07 -2.09501e-05 -6.31739e-06
-1.47385e-05 3.26214e-05 5.09515e-05
2.80053e-05 5.05319e-06 0.000116734
-9.99554e-06 -7.76833e-06 -7.83003e-06
0.000209947 0.000200169 8.52546e-05
4.34238e-05 -4.88874e-05 -5.29988e-05
-0.000103035 -0.00194715 0.00140594
1.26404e-05 1.05559e-05 -9.66495e-06
1.19375e-05 -1.96332e-05 4.06209e-06
-7.99633e-06 3.76649e-05 4.20302e-05
2.12411e-05 2.23535e-05 -5.48643e-06
-7.3684e-05 -2.69309e-05 7.94046e-05
-1.19962e-05 1.39219e-05 -2.92033e-05
0.000108132 -0.000107039 -3.13225e-05
-4.05235e-05 1.56199e-05 6.57197e-05
2.77925e-05 -1.11821e-05 -3.31222e-05
2.45577e-05 -0.00023532 -0.000200631
-1.65052e-05 1.60796e-05 7.1452e-06
-4.39711e-06 -1.46875e-05 4.01418e-06
8.30817e-06 -1.15054e-05 0.000301588
0.000115662 0.000181885 -5.77514e-05
7.22945e-05 0.000116784 -0.00012824
-2.09264e-06 3.05615e-06 -1.05731e-05
1.15371e-06 -5.27592e-06 7.17073e-06
0.000220442 4.47998e-05 0.000297565
0.000183944 -6.77491e-05 -0.000143275
-0.000106707 0.000322364 0.000316765
1.11952e-05 6.86754e-06 -8.83491e-06
-5.12332e-06 1.61896e-06 1.00293e-05
6.55423e-06 -2.2301e-05 6.3072e-07
-2.72788e-05 8.41818e-06 5.56515e-06
1.28035e-05 4.51535e-06 0.000116708
2.68268e-05 1.05813e-05 -8.85162e-06
-8.08521e-06 1.13736e-05 1.44564e-05
1.28256e-05 3.45113e-06 2.51699e-06
-0.000371159 0.000272065 0.000727686
3.14878e-05 -3.20779e-05 -2.14612e-05
-1.20545e-05 2.59626e-06 -2.24036e-06
8.94624e-06 -2.07226e-05 2.32783e-06
1.08886e-05 -3.36706e-05 2.13975e-05
7.57841e-07 6.4794e-06 -2.2651e-06
-2.19795e-06 6.05788e-05 -1.68826e-05
-9.32485e-05 4.30669e-05 6.55343e-05
1.06825e-05 -1.0326e-05 8.27702e-06
-7.20248e-05 4.10308e-05 5.42532e-05
-7.09497e-06 -8.86472e-06 -6.07423e-06
-0.000251982 -0.000240968 -0.000462292
0.000560484 -0.000939844 0.000355868
0.00272077 0.00344731 0.00311372
-0.00229213 0.00176867 -0.000279097
5.34918e-05 4.72024e-05 3.18451e-05
4.39071e-05 1.02515e-05 -0.00159392
-0.000193703 1.80951e-05 0.000179112
-0.000414349 0.000262764 0.000685435
-0.000333039 0.000913983 -0.00153635
0.000658143 -0.000352563 -0.000125475
0.000153955 0.000124349 2.23247e-05
-0.00185667 -0.000932753 -0.000211838
-9.13739e-05 6.37068e-05 -3.34899e-06
0.00188068 -0.00174954 0.000451829
-0.00277638 0.000896852 -6.00951e-06
-0.000974935 -0.000633283 0.000102736
-0.000125413 0.000129487 0.000696388
-1.45438e-05 9.32592e-06 -2.63535e-08
7.62653e-05 3.04576e-05 2.26919e-06
-0.0012141 0.00128875 0.000169152
2.05359e-05 -1.9607e-05 -7.98078e-06
4.34309e-05 2.09928e-05 4.69224e-06
-3.63458e-05 3.5728e-05 -8.90036e-06
4.06202e-05 -4.06207e-05 -4.84994e-05
0.000260927 0.000156855 -3.22567e-05
-0.000274699 9.31656e-05 0.000709806
-1.96642e-05 -1.97048e-05 -3.35031e-06
-8.4822e-05 3.82313e-05 -5.5176e-05
4.07585e-05 -3.47403e-05 -8.12589e-05
-1.04062e-05 -1.94601e-05 -6.3296e-05
0.00010391 0.000101295 -5.77434e-05
8.71405e-05 -0.00039107 -0.000192859
4.2645e-05 -1.04191e-05 -1.42369e-05
-9.38638e-05 -0.000109364 5.49541e-05
-0.00023911 0.000181549 0.000152146
2.89359e-05 -1.13784e-05 4.98293e-06
-4.19702e-05 -4.06149e-05 0.00013493
0.00039702 0.00015688 -5.53101e-05
7.37198e-05 0.000257925 0.000776465
1.43724e-05 0.000114728 -3.24442e-05
2.73646e-05 -0.000133926 -0.000603428
-0.0010084 0.000737234 -0.000287394
1.842e-05 -5.42158e-05 -0.000145082
0.00117849 0.000443132 0.000688025
0.000669834 -0.000569131 -0.000291776
-0.000394333 -0.000804372 -0.000431671
0.000386951 0.000634601 -0.000536603
1.41268e-05 0.000396549 0.000167596
8.38913e-05 0.000136723 -5.52663e-05
-0.000890324 0.000129491 -0.000575619
0.000428028 0.000230105 0.000594225
-0.000101482 -9.70487e-05 0.00345478
0.00202581 -0.00458639 0.00379864
0.00122124 0.00275833 -0.000771146
0.000235388 0.000177961 0.000170275
-0.00367054 0.000589104 -0.0041421
0.000147244 -0.00856065 -0.00408172
8.25753e-05 -0.000301981 0.000185408
8.76839e-05 -9.02707e-05 6.8433e-05
-8.76797e-05 -4.347e-05 2.76954e-05
0.00248327 0.000538519 0.00103296
1.25763e-05 -1.65578e-05 9.01381e-06
1.37483e-05 3.90875e-05 5.46485e-06
-1.10347e-05 1.11844e-05 1.48671e-06
0.00324646 0.00234893 -0.000491662
0.000328034 -0.000319967 -0.00295342
-5.05983e-05 -0.00010938 0.000620278
-0.000250175 0.000248259 0.000110349
-4.75267e-05 4.7041e-05 -6.41323e-06
0.00266813 0.00114047 0.00378095
-0.000329912 -0.000176568 -4.65089e-05
0.00143172 0.000554743 -5.3284e-05
-2.7936e-05 2.47124e-05 3.38649e-06
-0.000133004 -4.92435e-05 -1.85023e-05
-0.0001815 0.000177522 4.21568e-05
6.85428e-05 2.76835e-05 1.84691e-05
-3.53182e-05 3.35364e-05 -1.08415e-05
5.96424e-06 -5.95536e-06 1.08418e-05
2.69354e-05 2.59804e-05 1.21157e-05
-3.5882e-05 8.84656e-05 -4.19784e-05
-9.13863e-05 -6.9575e-05 7.77701e-05
-1.24086e-06 -1.72156e-05 2.11226e-05
-2.86199e-05 3.43775e-05 -7.74722e-05
-0.000111815 8.9049e-06 -4.71595e-05
4.94504e-06 4.65879e-06 0.000106374
0.000830094 -0.000161425 -1.84062e-05
-9.37566e-05 3.57519e-05 -2.4507e-05
0.000316139 -2.91101e-05 -0.000204378
-4.37387e-05 0.000184814 -0.000297848
-2.63477e-07 4.22238e-05 -0.000341181
-1.76886e-05 0.000109556 2.39853e-05
-2.174e-06 -6.22914e-06 -9.33458e-06
-9.47739e-05 2.59806e-05 0.000263376
-7.45548e-05 -0.000170825 0.000238263
0.000806743 -0.000591825 -7.82474e-05
-0.000301554 0.00014735 0.00016274
-7.25739e-06 -0.000107755 2.95582e-05
0.000167734 7.3005e-05 3.37534e-05
7.75085e-05 -9.51387e-08 8.76477e-06
-5.57493e-05 -3.49442e-05 4.1207e-06
-0.000721264 -0.000546947 -3.45614e-05
-6.67844e-06 -0.000136253 4.58871e-05
0.000625353 -0.000380654 -1.32381e-05
4.21006e-05 -0.000273687 -0.000308621
-0.00436789 0.00155277 0.000520084
7.21942e-05 -6.19666e-05 0.000155224
-6.85709e-05 -0.000328096 -0.000288131
0.0016521 -0.00351205 -0.00409023
-0.000362759 0.000341889 -0.000673525
6.71176e-05 -4.53635e-05 -8.00451e-05
-0.0026696 0.006512 -0.00193853
0.000456607 -0.000442764 -0.000191052
-0.0014458 -0.00117107 -0.00171943
-0.000905408 -0.000253334 -0.000209765
-0.00257939 -0.000817727 -0.00177471
0.000425165 0.000270511 -0.00456174
1.34604e-06 6.28804e-07 -2.71577e-06
5.87114e-06 8.11339e-06 7.68743e-06
0.000524915 0.000976577 3.79777e-05
-3.45495e-05 -8.37535e-05 9.902e-06
-3.93904e-05 2.49927e-05 -5.91084e-05
0.000264042 5.69785e-05 -0.00124594
2.53787e-06 -2.15719e-05 -5.28876e-05
-0.000926256 -0.000126653 -5.74856e-06
-3.91999e-05 -3.79191e-05 -2.54015e-05
0.000238588 9.3966e-05 -0.000168764
-1.32759e-05 1.57068e-05 1.42742e-06
-0.000109256 0.00010616 0.000100572
-8.59256e-05 -0.000215516 2.33048e-05
-8.4687e-05 3.57758e-05 1.93926e-05
-2.86897e-05 3.38592e-05 1.98314e-05
-0.000203851 -0.000504158 7.46855e-05
-0.00034144 0.000291931 -5.10013e-05
0.000204115 7.9547e-05 -2.23181e-06
-6.61119e-05 6.64093e-05 -1.11712e-05
1.98807e-06 3.82089e-06 -1.20273e-05
2.03261e-05 -1.09921e-05 -1.19675e-05
-1.61227e-05 -6.01026e-06 9.30812e-06
-3.09988e-05 1.90769e-05 2.58866e-06
7.18408e-05 6.48645e-05 -6.53602e-05
-1.22111e-05 5.80967e-06 -8.60625e-06
1.44472e-05 1.32827e-05 -9.90567e-06
-5.98089e-05 -3.38213e-05 2.63554e-05
-2.02585e-06 6.4689e-05 -4.29736e-05
-3.01991e-06 4.26686e-07 5.08379e-06
-2.72415e-06 4.66627e-05 -1.46676e-05
-1.00161e-05 8.36121e-06 -6.32701e-06
4.91135e-06 -3.19447e-06 -6.03562e-06
-4.07757e-05 -4.51304e-05 1.63343e-05
0.000241265 -0.000456432 0.000505033
-0.000108729 -7.76825e-05 5.37084e-05
4.09437e-05 -2.11237e-05 6.52395e-06
7.00146e-05 -0.000132785 3.19261e-05
-0.000131885 -2.0065e-08 -3.76601e-05
9.29374e-07 -7.12525e-06 -5.54986e-05
-1.43711e-05 -1.30291e-05 -6.81335e-06
7.35331e-07 -3.09284e-06 -6.19614e-05
-0.000263491 -0.00016262 -0.000347942
-1.21646e-05 -1.46082e-06 9.05906e-06
-0.000181415 -0.000487615 -8.79703e-06
0.000256082 -0.000363991 0.00298809
0.000724224 0.000150955 0.000403615
-1.67181e-05 1.88542e-05 3.70893e-06
5.15113e-05 0.000100599 5.87561e-05
-0.000596718 -0.000336851 0.000215562
-9.70347e-07 -5.24096e-05 -2.79813e-05
-0.000112861 -8.03577e-05 0.000189721
-0.000371774 9.34589e-05 0.000318323
-0.00216465 0.000265106 0.00153881
-2.01393e-05 -2.95452e-06 -1.44791e-06
3.51738e-05 -4.82309e-05 -5.45629e-06
-1.32943e-05 -7.14919e-05 -2.19335e-05
6.22587e-05 -1.15935e-05 -4.46472e-06
-1.24777e-05 -4.46106e-05 -1.80203e-05
5.43862e-05 0.000179977 0.000213666
-0.000134028 0.000270061 -2.35093e-05
0.000146235 -0.000308223 -0.00052574
9.61728e-05 -8.32608e-05 -6.85473e-06
0.000323886 -0.000505017 0.00114939
4.07124e-05 7.59011e-05 -5.0723e-05
-7.31165e-05 -8.87837e-05 -6.60558e-05
-7.06093e-05 -0.000112137 -1.2044e-05