<?xml version="1.0"?>
<VTKFile type="UnstructuredGrid" version="0.1" byte_order="LittleEndian" compressor="vtkZLibDataCompressor">
 <UnstructuredGrid GhostLevel="0">
  <Piece NumberOfPoints="4" NumberOfCells="4">
   <PointData>
    <DataArray type="Float64" Name="Elongation" NumberOfComponents="3"/>
9.14701e-07 -3.2634e-07 0
-2.29117e-06 -0.000490204 0
-0.000420903 0.000245873 0
0.000423092 0.000242003 0
    <DataArray type="Float64" Name="norm"/>
9.71173e-07
0.000490209
0.000487455
0.000487414
   </PointData>
   <CellData>
   </CellData>
   <Points>
    <DataArray type="Float64" Name="Points" NumberOfComponents="3"/>
2 2.00022 0.0999486
2.00006 2.78393 0.0999486
2.67781 1.60829 0.0999486
1.32225 1.60824 0.0999486
   </Points>
   <Cells>
    <DataArray type="Int64" Name="connectivity" format="ascii">
0
1
2
3
    </DataArray>
    <DataArray type="Int64" Name="offsets" format="ascii">
1
2
3
4
    </DataArray>
    <DataArray type="Int64" Name="types" format="ascii">
1
1
1
1
    </DataArray>
   </Cells>
  </Piece>
 </UnstructuredGrid>
</VTKFile>