<?xml version="1.0"?>
<VTKFile type="UnstructuredGrid" version="0.1" byte_order="LittleEndian" compressor="vtkZLibDataCompressor">
 <UnstructuredGrid GhostLevel="0">
  <Piece NumberOfPoints="4" NumberOfCells="4">
   <PointData>
    <DataArray type="Float64" Name="Elongation" NumberOfComponents="3"/>
9.14702e-07 -3.2634e-07 0
-2.29725e-06 -0.00055116 0
-0.000473678 0.000276377 0
0.000475865 0.000272511 0
    <DataArray type="Float64" Name="norm"/>
9.71173e-07
0.000551165
0.000548411
0.00054837
   </PointData>
   <CellData>
   </CellData>
   <Points>
    <DataArray type="Float64" Name="Points" NumberOfComponents="3"/>
2 2.00022 0.0999486
2.00006 2.77908 0.0999486
2.67363 1.6107 0.0999486
1.32642 1.61065 0.0999486
   </Points>
   <Cells>
    <DataArray type="Int64" Name="connectivity" format="ascii">
0
1
2
3
    </DataArray>
    <DataArray type="Int64" Name="offsets" format="ascii">
1
2
3
4
    </DataArray>
    <DataArray type="Int64" Name="types" format="ascii">
1
1
1
1
    </DataArray>
   </Cells>
  </Piece>
 </UnstructuredGrid>
</VTKFile>