<?xml version="1.0"?>
<VTKFile type="UnstructuredGrid" version="0.1" byte_order="LittleEndian" compressor="vtkZLibDataCompressor">
 <UnstructuredGrid GhostLevel="0">
  <Piece NumberOfPoints="4" NumberOfCells="4">
   <PointData>
    <DataArray type="Float64" Name="Elongation" NumberOfComponents="3"/>
9.147e-07 -3.26339e-07 0
-2.27602e-06 -0.000347975 0
-0.000297765 0.000174697 0
0.000299959 0.00017082 0
    <DataArray type="Float64" Name="norm"/>
9.71171e-07
0.000347982
0.000345229
0.000345188
   </PointData>
   <CellData>
   </CellData>
   <Points>
    <DataArray type="Float64" Name="Points" NumberOfComponents="3"/>
2 2.00022 0.0999486
2.00006 2.79303 0.0999486
2.68564 1.60377 0.0999486
1.31442 1.60371 0.0999486
   </Points>
   <Cells>
    <DataArray type="Int64" Name="connectivity" format="ascii">
0
1
2
3
    </DataArray>
    <DataArray type="Int64" Name="offsets" format="ascii">
1
2
3
4
    </DataArray>
    <DataArray type="Int64" Name="types" format="ascii">
1
1
1
1
    </DataArray>
   </Cells>
  </Piece>
 </UnstructuredGrid>
</VTKFile>