<?xml version="1.0"?>
<VTKFile type="UnstructuredGrid" version="0.1" byte_order="LittleEndian" compressor="vtkZLibDataCompressor">
 <UnstructuredGrid GhostLevel="0">
  <Piece NumberOfPoints="4" NumberOfCells="4">
   <PointData>
    <DataArray type="Float64" Name="Elongation" NumberOfComponents="3"/>
9.14705e-07 -3.26341e-07 0
-2.32703e-06 -0.000866114 0
-0.00074636 0.000433985 0
0.000748533 0.000430145 0
    <DataArray type="Float64" Name="norm"/>
9.71176e-07
0.000866118
0.000863364
0.000863323
   </PointData>
   <CellData>
   </CellData>
   <Points>
    <DataArray type="Float64" Name="Points" NumberOfComponents="3"/>
2.00001 2.00021 0.0999486
2.00006 2.74506 0.0999486
2.64429 1.62767 0.0999486
1.35576 1.62761 0.0999486
   </Points>
   <Cells>
    <DataArray type="Int64" Name="connectivity" format="ascii">
0
1
2
3
    </DataArray>
    <DataArray type="Int64" Name="offsets" format="ascii">
1
2
3
4
    </DataArray>
    <DataArray type="Int64" Name="types" format="ascii">
1
1
1
1
    </DataArray>
   </Cells>
  </Piece>
 </UnstructuredGrid>
</VTKFile>