<?xml version="1.0"?>
<VTKFile type="UnstructuredGrid" version="0.1" byte_order="LittleEndian" compressor="vtkZLibDataCompressor">
 <UnstructuredGrid GhostLevel="0">
  <Piece NumberOfPoints="4" NumberOfCells="4">
   <PointData>
    <DataArray type="Float64" Name="Elongation" NumberOfComponents="3"/>
9.14697e-07 -3.26338e-07 0
-2.03454e-06 -1.29205e-05 0
-7.85502e-06 6.8311e-06 0
9.80455e-06 3.37815e-06 0
    <DataArray type="Float64" Name="norm"/>
9.71168e-07
1.30797e-05
1.04099e-05
1.03702e-05
   </PointData>
   <CellData>
   </CellData>
   <Points>
    <DataArray type="Float64" Name="Points" NumberOfComponents="3"/>
1.99999 2.00022 0.0999486
2.00006 2.80232 0.0999486
2.69356 1.59919 0.0999486
1.3065 1.59913 0.0999486
   </Points>
   <Cells>
    <DataArray type="Int64" Name="connectivity" format="ascii">
0
1
2
3
    </DataArray>
    <DataArray type="Int64" Name="offsets" format="ascii">
1
2
3
4
    </DataArray>
    <DataArray type="Int64" Name="types" format="ascii">
1
1
1
1
    </DataArray>
   </Cells>
  </Piece>
 </UnstructuredGrid>
</VTKFile>