<?xml version="1.0"?>
<VTKFile type="UnstructuredGrid" version="0.1" byte_order="LittleEndian" compressor="vtkZLibDataCompressor">
 <UnstructuredGrid GhostLevel="0">
  <Piece NumberOfPoints="4" NumberOfCells="4">
   <PointData>
    <DataArray type="Float64" Name="Elongation" NumberOfComponents="3"/>
9.14699e-07 -3.26339e-07 0
-2.26872e-06 -0.000287021 0
-0.000244993 0.000144194 0
0.000247188 0.000140314 0
    <DataArray type="Float64" Name="norm"/>
9.7117e-07
0.00028703
0.000284277
0.000284236
   </PointData>
   <CellData>
   </CellData>
   <Points>
    <DataArray type="Float64" Name="Points" NumberOfComponents="3"/>
2 2.00022 0.0999486
2.00006 2.79599 0.0999486
2.68818 1.6023 0.0999486
1.31188 1.60224 0.0999486
   </Points>
   <Cells>
    <DataArray type="Int64" Name="connectivity" format="ascii">
0
1
2
3
    </DataArray>
    <DataArray type="Int64" Name="offsets" format="ascii">
1
2
3
4
    </DataArray>
    <DataArray type="Int64" Name="types" format="ascii">
1
1
1
1
    </DataArray>
   </Cells>
  </Piece>
 </UnstructuredGrid>
</VTKFile>