<?xml version="1.0"?>
<VTKFile type="UnstructuredGrid" version="0.1" byte_order="LittleEndian" compressor="vtkZLibDataCompressor">
 <UnstructuredGrid GhostLevel="0">
  <Piece NumberOfPoints="4" NumberOfCells="4">
   <PointData>
    <DataArray type="Float64" Name="radius"/>
0.1
0.1
0.1
0.1
    <DataArray type="Float64" Name="mass"/>
10.472
10.472
10.472
10.472
    <DataArray type="Float64" Name="particleIndex"/>
0
1
2
3
    <DataArray type="Float64" Name="clusterIndex"/>
0
1
2
3
    <DataArray type="Float64" Name="v" NumberOfComponents="3"/>
-2.45745e-05 8.76748e-06 -2.10263e-12
2.42019e-05 0.275402 -1.10034e-12
0.238071 -0.137602 -1.17996e-12
-0.238051 -0.137623 -1.17996e-12
    <DataArray type="Float64" Name="w" NumberOfComponents="3"/>
7.72108e-05 0.000216415 4.94066e-324
-0.000279593 -6.77349e-05 -0.000248992
8.3657e-05 0.000274575 -0.000249734
0.000193386 -0.000211146 -0.000250551
    <DataArray type="Float64" Name="FParticle" NumberOfComponents="3"/>
0 0 0
0 0 0
0 0 0
0 0 0
    <DataArray type="Float64" Name="FGrav" NumberOfComponents="3"/>
0 0 -102.73
0 0 -102.73
0 0 -102.73
0 0 -102.73
    <DataArray type="Float64" Name="MParticle" NumberOfComponents="3"/>
0 0 0
0 0 0
0 0 0
0 0 0
    <DataArray type="Float64" Name="FWall" NumberOfComponents="3"/>
1.54811 -0.552321 102.73
-0.000690447 -1.64368 102.73
-1.42282 0.822973 102.73
1.42324 0.822234 102.73
    <DataArray type="Float64" Name="MWall" NumberOfComponents="3"/>
-0.0552321 -0.154811 0
-0.164368 6.90447e-05 0
0.0822973 0.142282 0
0.0822234 -0.142324 0
    <DataArray type="Float64" Name="FHydro" NumberOfComponents="3"/>
0 0 0
0 0 0
0 0 0
0 0 0
    <DataArray type="Float64" Name="FSpringP" NumberOfComponents="3"/>
0 0 0
0 0 0
0 0 0
0 0 0
    <DataArray type="Float64" Name="FSpringW" NumberOfComponents="3"/>
1.54811 -0.552321 0
-0.000690447 -1.64368 0
-1.42282 0.822973 0
1.42324 0.822234 0
    <DataArray type="Float64" Name="MRolling" NumberOfComponents="3"/>
-0.690401 -1.93513 -1.90858e-320
0.164415 0.53775 1.97615
0.364183 -0.400341 1.98204
-0.506484 -0.102951 1.98853
   </PointData>
   <CellData>
   </CellData>
   <Points>
    <DataArray type="Float64" Name="Points" NumberOfComponents="3"/>
2.00003 2.00021 0.137449
2.00004 2.56078 0.137449
2.48507 1.71969 0.137449
1.51496 1.71965 0.137449
   </Points>
   <Cells>
    <DataArray type="Int64" Name="connectivity" format="ascii">
0
1
2
3
    </DataArray>
    <DataArray type="Int64" Name="offsets" format="ascii">
1
2
3
4
    </DataArray>
    <DataArray type="Int64" Name="types" format="ascii">
1
1
1
1
    </DataArray>
   </Cells>
  </Piece>
 </UnstructuredGrid>
</VTKFile>