<?xml version="1.0"?>
<VTKFile type="UnstructuredGrid" version="0.1" byte_order="LittleEndian" compressor="vtkZLibDataCompressor">
 <UnstructuredGrid GhostLevel="0">
  <Piece NumberOfPoints="4" NumberOfCells="4">
   <PointData>
    <DataArray type="Float64" Name="radius"/>
0.1
0.1
0.1
0.1
    <DataArray type="Float64" Name="mass"/>
10.472
10.472
10.472
10.472
    <DataArray type="Float64" Name="particleIndex"/>
0
1
2
3
    <DataArray type="Float64" Name="clusterIndex"/>
0
1
2
3
    <DataArray type="Float64" Name="v" NumberOfComponents="3"/>
6.93409e-05 0.0001997 -0.136452
3.37227e-05 0.383745 -1.10035e-12
0.331873 -0.191818 -1.17997e-12
-0.331848 -0.191849 -1.17997e-12
    <DataArray type="Float64" Name="w" NumberOfComponents="3"/>
-8.82788e-05 3.05048e-05 -6.33421e-32
-0.000279585 -1.43256e-06 -0.000258041
0.000138708 0.000242755 -0.000258042
0.000141069 -0.00024139 -0.000258042
    <DataArray type="Float64" Name="FParticle" NumberOfComponents="3"/>
0 0 0
0 0 0
0 0 0
0 0 0
    <DataArray type="Float64" Name="FGrav" NumberOfComponents="3"/>
0 0 -102.73
0 0 -102.73
0 0 -102.73
0 0 -102.73
    <DataArray type="Float64" Name="MParticle" NumberOfComponents="3"/>
0 0 0
0 0 0
0 0 0
0 0 0
    <DataArray type="Float64" Name="FWall" NumberOfComponents="3"/>
0 0 0
-0.00015287 -1.64368 102.73
-1.42307 0.822526 102.73
1.423 0.822659 102.73
    <DataArray type="Float64" Name="MWall" NumberOfComponents="3"/>
0 0 0
-0.164368 1.5287e-05 0
0.0822526 0.142307 0
0.0822659 -0.1423 0
    <DataArray type="Float64" Name="FHydro" NumberOfComponents="3"/>
0 0 0
0 0 0
0 0 0
0 0 0
    <DataArray type="Float64" Name="FSpringP" NumberOfComponents="3"/>
0 0 0
0 0 0
0 0 0
0 0 0
    <DataArray type="Float64" Name="FSpringW" NumberOfComponents="3"/>
0 0 0
-0.00015287 -1.64368 0
-1.42307 0.822526 0
1.423 0.822659 0
    <DataArray type="Float64" Name="MRolling" NumberOfComponents="3"/>
0 0 0
0.164369 0.01155 2.04798
-0.0727286 -0.147812 2.04799
-0.0912857 0.137085 2.04799
   </PointData>
   <CellData>
   </CellData>
   <Points>
    <DataArray type="Float64" Name="Points" NumberOfComponents="3"/>
2.00002 2.00014 0.157743
2.00002 2.33337 0.137449
2.28844 1.83334 0.137449
1.71158 1.83332 0.137449
   </Points>
   <Cells>
    <DataArray type="Int64" Name="connectivity" format="ascii">
0
1
2
3
    </DataArray>
    <DataArray type="Int64" Name="offsets" format="ascii">
1
2
3
4
    </DataArray>
    <DataArray type="Int64" Name="types" format="ascii">
1
1
1
1
    </DataArray>
   </Cells>
  </Piece>
 </UnstructuredGrid>
</VTKFile>