<?xml version="1.0"?>
<VTKFile type="UnstructuredGrid" version="0.1" byte_order="LittleEndian" compressor="vtkZLibDataCompressor">
 <UnstructuredGrid GhostLevel="0">
  <Piece NumberOfPoints="4" NumberOfCells="4">
   <PointData>
    <DataArray type="Float64" Name="radius"/>
0.1
0.1
0.1
0.1
    <DataArray type="Float64" Name="mass"/>
10.472
10.472
10.472
10.472
    <DataArray type="Float64" Name="particleIndex"/>
0
1
2
3
    <DataArray type="Float64" Name="clusterIndex"/>
0
1
2
3
    <DataArray type="Float64" Name="v" NumberOfComponents="3"/>
7.36976e-05 0.00021326 0.0477128
3.13769e-05 0.357051 -1.10034e-12
0.308761 -0.17846 -1.17996e-12
-0.308738 -0.178488 -1.17996e-12
    <DataArray type="Float64" Name="w" NumberOfComponents="3"/>
0.000448963 -0.000155148 -3.98512e-61
-0.000279585 -3.35779e-06 -0.000258023
0.00013712 0.000243673 -0.000258025
0.000142573 -0.00024052 -0.000258027
    <DataArray type="Float64" Name="FParticle" NumberOfComponents="3"/>
0 0 0
0 0 0
0 0 0
0 0 0
    <DataArray type="Float64" Name="FGrav" NumberOfComponents="3"/>
0 0 -102.73
0 0 -102.73
0 0 -102.73
0 0 -102.73
    <DataArray type="Float64" Name="MParticle" NumberOfComponents="3"/>
0 0 0
0 0 0
0 0 0
0 0 0
    <DataArray type="Float64" Name="FWall" NumberOfComponents="3"/>
0 0 0
-0.000165465 -1.64368 102.73
-1.42307 0.822536 102.73
1.423 0.822649 102.73
    <DataArray type="Float64" Name="MWall" NumberOfComponents="3"/>
0 0 0
-0.164368 1.65465e-05 0
0.0822536 0.142307 0
0.0822649 -0.1423 0
    <DataArray type="Float64" Name="FHydro" NumberOfComponents="3"/>
0 0 0
0 0 0
0 0 0
0 0 0
    <DataArray type="Float64" Name="FSpringP" NumberOfComponents="3"/>
0 0 0
0 0 0
0 0 0
0 0 0
    <DataArray type="Float64" Name="FSpringW" NumberOfComponents="3"/>
0 0 0
-0.000165465 -1.64368 0
-1.42307 0.822536 0
1.423 0.822649 0
    <DataArray type="Float64" Name="MRolling" NumberOfComponents="3"/>
0 0 0
0.16437 0.0268295 2.04784
-0.0601246 -0.155097 2.04786
-0.103223 0.130184 2.04787
   </PointData>
   <CellData>
   </CellData>
   <Points>
    <DataArray type="Float64" Name="Points" NumberOfComponents="3"/>
2.00003 2.00018 0.140556
2.00003 2.39634 0.137449
2.3429 1.80186 0.137449
1.65713 1.80184 0.137449
   </Points>
   <Cells>
    <DataArray type="Int64" Name="connectivity" format="ascii">
0
1
2
3
    </DataArray>
    <DataArray type="Int64" Name="offsets" format="ascii">
1
2
3
4
    </DataArray>
    <DataArray type="Int64" Name="types" format="ascii">
1
1
1
1
    </DataArray>
   </Cells>
  </Piece>
 </UnstructuredGrid>
</VTKFile>