<?xml version="1.0"?>
<VTKFile type="UnstructuredGrid" version="0.1" byte_order="LittleEndian" compressor="vtkZLibDataCompressor">
 <UnstructuredGrid GhostLevel="0">
  <Piece NumberOfPoints="4" NumberOfCells="4">
   <PointData>
    <DataArray type="Float64" Name="radius"/>
0.1
0.1
0.1
0.1
    <DataArray type="Float64" Name="mass"/>
10.472
10.472
10.472
10.472
    <DataArray type="Float64" Name="particleIndex"/>
0
1
2
3
    <DataArray type="Float64" Name="clusterIndex"/>
0
1
2
3
    <DataArray type="Float64" Name="v" NumberOfComponents="3"/>
0.000112069 0.000206857 0.0482827
2.9997e-05 0.341348 -1.10034e-12
0.295167 -0.170602 -1.17996e-12
-0.295143 -0.170629 -1.17996e-12
    <DataArray type="Float64" Name="w" NumberOfComponents="3"/>
0.00308393 -0.00140979 -4.89283e-96
-0.000279586 -5.69416e-06 -0.000257982
0.000135191 0.000244787 -0.000257988
0.0001444 -0.000239464 -0.000257994
    <DataArray type="Float64" Name="FParticle" NumberOfComponents="3"/>
0 0 0
0 0 0
0 0 0
0 0 0
    <DataArray type="Float64" Name="FGrav" NumberOfComponents="3"/>
0 0 -102.73
0 0 -102.73
0 0 -102.73
0 0 -102.73
    <DataArray type="Float64" Name="MParticle" NumberOfComponents="3"/>
0 0 0
0 0 0
0 0 0
0 0 0
    <DataArray type="Float64" Name="FWall" NumberOfComponents="3"/>
-1.40829 -2.52434 180.662
-0.000181621 -1.64368 102.73
-1.42306 0.822549 102.73
1.42301 0.822637 102.73
    <DataArray type="Float64" Name="MWall" NumberOfComponents="3"/>
-0.252434 0.140829 0
-0.164368 1.81621e-05 0
0.0822549 0.142306 0
0.0822637 -0.142301 0
    <DataArray type="Float64" Name="FHydro" NumberOfComponents="3"/>
0 0 0
0 0 0
0 0 0
0 0 0
    <DataArray type="Float64" Name="FSpringP" NumberOfComponents="3"/>
0 0 0
0 0 0
0 0 0
0 0 0
    <DataArray type="Float64" Name="FSpringW" NumberOfComponents="3"/>
-1.40829 -2.52434 0
-0.000181621 -1.64368 0
-1.42306 0.822549 0
1.42301 0.822637 0
    <DataArray type="Float64" Name="MRolling" NumberOfComponents="3"/>
-3.15031 1.76948 3.08871e-93
0.164372 0.045372 2.04751
-0.0448156 -0.163945 2.04756
-0.117723 0.121801 2.04761
   </PointData>
   <CellData>
   </CellData>
   <Points>
    <DataArray type="Float64" Name="Points" NumberOfComponents="3"/>
2.00004 2.0002 0.137376
2.00003 2.43126 0.137449
2.37309 1.78441 0.137449
1.62693 1.78438 0.137449
   </Points>
   <Cells>
    <DataArray type="Int64" Name="connectivity" format="ascii">
0
1
2
3
    </DataArray>
    <DataArray type="Int64" Name="offsets" format="ascii">
1
2
3
4
    </DataArray>
    <DataArray type="Int64" Name="types" format="ascii">
1
1
1
1
    </DataArray>
   </Cells>
  </Piece>
 </UnstructuredGrid>
</VTKFile>