<?xml version="1.0"?>
<VTKFile type="UnstructuredGrid" version="0.1" byte_order="LittleEndian" compressor="vtkZLibDataCompressor">
 <UnstructuredGrid GhostLevel="0">
  <Piece NumberOfPoints="4" NumberOfCells="4">
   <PointData>
    <DataArray type="Float64" Name="radius"/>
0.1
0.1
0.1
0.1
    <DataArray type="Float64" Name="mass"/>
10.472
10.472
10.472
10.472
    <DataArray type="Float64" Name="particleIndex"/>
0
1
2
3
    <DataArray type="Float64" Name="clusterIndex"/>
0
1
2
3
    <DataArray type="Float64" Name="v" NumberOfComponents="3"/>
-2.45693e-05 8.76565e-06 -2.09556e-12
7.78642e-06 0.088581 -1.10034e-12
0.076324 -0.0441142 -1.17996e-12
-0.0763139 -0.0441189 -1.17996e-12
    <DataArray type="Float64" Name="w" NumberOfComponents="3"/>
7.72227e-05 0.000216448 4.94066e-324
-0.000279694 -0.000258102 -1.66052e-09
-8.35321e-05 0.000371306 -1.67181e-09
0.000363446 -0.000112928 -1.76401e-09
    <DataArray type="Float64" Name="FParticle" NumberOfComponents="3"/>
0 0 0
0 0 0
0 0 0
0 0 0
    <DataArray type="Float64" Name="FGrav" NumberOfComponents="3"/>
0 0 -102.73
0 0 -102.73
0 0 -102.73
0 0 -102.73
    <DataArray type="Float64" Name="MParticle" NumberOfComponents="3"/>
0 0 0
0 0 0
0 0 0
0 0 0
    <DataArray type="Float64" Name="FWall" NumberOfComponents="3"/>
1.54811 -0.552321 102.73
-0.00661299 -1.64367 102.73
-1.41981 0.82814 102.73
1.42624 0.817032 102.73
    <DataArray type="Float64" Name="MWall" NumberOfComponents="3"/>
-0.0552321 -0.154811 0
-0.164367 0.000661299 0
0.082814 0.141981 0
0.0817032 -0.142624 0
    <DataArray type="Float64" Name="FHydro" NumberOfComponents="3"/>
0 0 0
0 0 0
0 0 0
0 0 0
    <DataArray type="Float64" Name="FSpringP" NumberOfComponents="3"/>
0 0 0
0 0 0
0 0 0
0 0 0
    <DataArray type="Float64" Name="FSpringW" NumberOfComponents="3"/>
1.54811 -0.552321 0
-0.00661299 -1.64367 0
-1.41981 0.82814 0
1.42624 0.817032 0
    <DataArray type="Float64" Name="MRolling" NumberOfComponents="3"/>
-0.690401 -1.93513 -1.90858e-320
0.164547 2.048 1.31761e-05
1.69089 -1.16716 1.32657e-05
-1.85531 -0.882738 1.39973e-05
   </PointData>
   <CellData>
   </CellData>
   <Points>
    <DataArray type="Float64" Name="Points" NumberOfComponents="3"/>
2.00001 2.00022 0.137449
2.00006 2.77734 0.137449
2.67213 1.61157 0.137449
1.32792 1.61152 0.137449
   </Points>
   <Cells>
    <DataArray type="Int64" Name="connectivity" format="ascii">
0
1
2
3
    </DataArray>
    <DataArray type="Int64" Name="offsets" format="ascii">
1
2
3
4
    </DataArray>
    <DataArray type="Int64" Name="types" format="ascii">
1
1
1
1
    </DataArray>
   </Cells>
  </Piece>
 </UnstructuredGrid>
</VTKFile>