<?xml version="1.0"?>
<VTKFile type="UnstructuredGrid" version="0.1" byte_order="LittleEndian" compressor="vtkZLibDataCompressor">
 <UnstructuredGrid GhostLevel="0">
  <Piece NumberOfPoints="4" NumberOfCells="4">
   <PointData>
    <DataArray type="Float64" Name="radius"/>
0.1
0.1
0.1
0.1
    <DataArray type="Float64" Name="mass"/>
10.472
10.472
10.472
10.472
    <DataArray type="Float64" Name="particleIndex"/>
0
1
2
3
    <DataArray type="Float64" Name="clusterIndex"/>
0
1
2
3
    <DataArray type="Float64" Name="v" NumberOfComponents="3"/>
-2.45682e-05 8.76524e-06 -2.09556e-12
4.20173e-06 0.0477688 -1.10034e-12
0.0409893 -0.0236912 -1.17996e-12
-0.0409813 -0.0236923 -1.17996e-12
    <DataArray type="Float64" Name="w" NumberOfComponents="3"/>
7.72253e-05 0.000216456 4.94066e-324
-0.000279764 -0.000258172 -1.21508e-12
-8.35577e-05 0.000371403 -1.16561e-12
0.000363543 -0.000112955 -1.229e-12
    <DataArray type="Float64" Name="FParticle" NumberOfComponents="3"/>
0 0 0
0 0 0
0 0 0
0 0 0
    <DataArray type="Float64" Name="FGrav" NumberOfComponents="3"/>
0 0 -102.73
0 0 -102.73
0 0 -102.73
0 0 -102.73
    <DataArray type="Float64" Name="MParticle" NumberOfComponents="3"/>
0 0 0
0 0 0
0 0 0
0 0 0
    <DataArray type="Float64" Name="FWall" NumberOfComponents="3"/>
1.54811 -0.552321 102.73
-0.0121465 -1.64364 102.73
-1.41698 0.832981 102.73
1.42902 0.812158 102.73
    <DataArray type="Float64" Name="MWall" NumberOfComponents="3"/>
-0.0552321 -0.154811 0
-0.164364 0.00121465 0
0.0832981 0.141698 0
0.0812158 -0.142902 0
    <DataArray type="Float64" Name="FHydro" NumberOfComponents="3"/>
0 0 0
0 0 0
0 0 0
0 0 0
    <DataArray type="Float64" Name="FSpringP" NumberOfComponents="3"/>
0 0 0
0 0 0
0 0 0
0 0 0
    <DataArray type="Float64" Name="FSpringW" NumberOfComponents="3"/>
1.54811 -0.552321 0
-0.0121465 -1.64364 0
-1.41698 0.832981 0
1.42902 0.812158 0
    <DataArray type="Float64" Name="MRolling" NumberOfComponents="3"/>
-0.690401 -1.93513 -1.90858e-320
0.164544 2.048 9.63975e-09
1.6909 -1.16716 9.24726e-09
-1.8553 -0.882741 9.75019e-09
   </PointData>
   <CellData>
   </CellData>
   <Points>
    <DataArray type="Float64" Name="Points" NumberOfComponents="3"/>
2 2.00022 0.137449
2.00006 2.79507 0.137449
2.68738 1.60276 0.137449
1.31267 1.6027 0.137449
   </Points>
   <Cells>
    <DataArray type="Int64" Name="connectivity" format="ascii">
0
1
2
3
    </DataArray>
    <DataArray type="Int64" Name="offsets" format="ascii">
1
2
3
4
    </DataArray>
    <DataArray type="Int64" Name="types" format="ascii">
1
1
1
1
    </DataArray>
   </Cells>
  </Piece>
 </UnstructuredGrid>
</VTKFile>