<?xml version="1.0"?>
<VTKFile type="UnstructuredGrid" version="0.1" byte_order="LittleEndian" compressor="vtkZLibDataCompressor">
 <UnstructuredGrid GhostLevel="0">
  <Piece NumberOfPoints="4" NumberOfCells="4">
   <PointData>
    <DataArray type="Float64" Name="radius"/>
0.1
0.1
0.1
0.1
    <DataArray type="Float64" Name="mass"/>
10.472
10.472
10.472
10.472
    <DataArray type="Float64" Name="particleIndex"/>
0
1
2
3
    <DataArray type="Float64" Name="clusterIndex"/>
0
1
2
3
    <DataArray type="Float64" Name="v" NumberOfComponents="3"/>
-2.45717e-05 8.76651e-06 -2.09556e-12
1.55108e-05 0.176492 -1.10034e-12
0.152436 -0.0881057 -1.17996e-12
-0.152421 -0.0881183 -1.17996e-12
    <DataArray type="Float64" Name="w" NumberOfComponents="3"/>
7.72171e-05 0.000216433 4.94066e-324
-0.000279651 -0.000258008 -5.23679e-06
-8.34687e-05 0.00037122 -5.42243e-06
0.000363334 -0.000112944 -5.72377e-06
    <DataArray type="Float64" Name="FParticle" NumberOfComponents="3"/>
0 0 0
0 0 0
0 0 0
0 0 0
    <DataArray type="Float64" Name="FGrav" NumberOfComponents="3"/>
0 0 -102.73
0 0 -102.73
0 0 -102.73
0 0 -102.73
    <DataArray type="Float64" Name="MParticle" NumberOfComponents="3"/>
0 0 0
0 0 0
0 0 0
0 0 0
    <DataArray type="Float64" Name="FWall" NumberOfComponents="3"/>
1.54811 -0.552321 102.73
-0.00338922 -1.64368 102.73
-1.42145 0.825333 102.73
1.42462 0.819848 102.73
    <DataArray type="Float64" Name="MWall" NumberOfComponents="3"/>
-0.0552321 -0.154811 0
-0.164368 0.000338922 0
0.0825333 0.142145 0
0.0819848 -0.142462 0
    <DataArray type="Float64" Name="FHydro" NumberOfComponents="3"/>
0 0 0
0 0 0
0 0 0
0 0 0
    <DataArray type="Float64" Name="FSpringP" NumberOfComponents="3"/>
0 0 0
0 0 0
0 0 0
0 0 0
    <DataArray type="Float64" Name="FSpringW" NumberOfComponents="3"/>
1.54811 -0.552321 0
-0.00338922 -1.64368 0
-1.42145 0.825333 0
1.42462 0.819848 0
    <DataArray type="Float64" Name="MRolling" NumberOfComponents="3"/>
-0.690401 -1.93513 -1.90858e-320
0.164548 2.04758 0.0415581
1.6905 -1.16693 0.0430312
-1.85487 -0.882485 0.0454226
   </PointData>
   <CellData>
   </CellData>
   <Points>
    <DataArray type="Float64" Name="Points" NumberOfComponents="3"/>
2.00002 2.00021 0.137449
2.00005 2.70312 0.137449
2.60808 1.64859 0.137449
1.39196 1.64854 0.137449
   </Points>
   <Cells>
    <DataArray type="Int64" Name="connectivity" format="ascii">
0
1
2
3
    </DataArray>
    <DataArray type="Int64" Name="offsets" format="ascii">
1
2
3
4
    </DataArray>
    <DataArray type="Int64" Name="types" format="ascii">
1
1
1
1
    </DataArray>
   </Cells>
  </Piece>
 </UnstructuredGrid>
</VTKFile>