<?xml version="1.0"?>
<VTKFile type="UnstructuredGrid" version="0.1" byte_order="LittleEndian" compressor="vtkZLibDataCompressor">
 <UnstructuredGrid GhostLevel="0">
  <Piece NumberOfPoints="4" NumberOfCells="4">
   <PointData>
    <DataArray type="Float64" Name="radius"/>
0.1
0.1
0.1
0.1
    <DataArray type="Float64" Name="mass"/>
10.472
10.472
10.472
10.472
    <DataArray type="Float64" Name="particleIndex"/>
0
1
2
3
    <DataArray type="Float64" Name="clusterIndex"/>
0
1
2
3
    <DataArray type="Float64" Name="v" NumberOfComponents="3"/>
6.93416e-05 0.000199702 0.45215
3.45507e-05 0.393167 -1.13262e-12
0.340031 -0.196533 -1.21194e-12
-0.340005 -0.196565 -1.21194e-12
    <DataArray type="Float64" Name="w" NumberOfComponents="3"/>
-8.82819e-05 3.05059e-05 -6.33444e-32
-0.000279585 -1.07307e-06 -0.000258043
0.000139004 0.000242583 -0.000258043
0.000140789 -0.000241552 -0.000258043
    <DataArray type="Float64" Name="FParticle" NumberOfComponents="3"/>
0 0 0
0 0 0
0 0 0
0 0 0
    <DataArray type="Float64" Name="FGrav" NumberOfComponents="3"/>
0 0 -102.73
0 0 -102.73
0 0 -102.73
0 0 -102.73
    <DataArray type="Float64" Name="MParticle" NumberOfComponents="3"/>
0 0 0
0 0 0
0 0 0
0 0 0
    <DataArray type="Float64" Name="FWall" NumberOfComponents="3"/>
0 0 0
-0.000150639 -1.64368 102.73
-1.42308 0.822524 102.73
1.423 0.822661 102.73
    <DataArray type="Float64" Name="MWall" NumberOfComponents="3"/>
0 0 0
-0.164368 1.50639e-05 0
0.0822524 0.142308 0
0.0822661 -0.1423 0
    <DataArray type="Float64" Name="FHydro" NumberOfComponents="3"/>
0 0 0
0 0 0
0 0 0
0 0 0
    <DataArray type="Float64" Name="FSpringP" NumberOfComponents="3"/>
0 0 0
0 0 0
0 0 0
0 0 0
    <DataArray type="Float64" Name="FSpringW" NumberOfComponents="3"/>
0 0 0
-0.000150639 -1.64368 0
-1.42308 0.822524 0
1.423 0.822661 0
    <DataArray type="Float64" Name="MRolling" NumberOfComponents="3"/>
0 0 0
0.164369 0.00869697 2.048
-0.0750803 -0.146453 2.048
-0.0890584 0.138373 2.048
   </PointData>
   <CellData>
   </CellData>
   <Points>
    <DataArray type="Float64" Name="Points" NumberOfComponents="3"/>
2.00002 2.00013 0.148272
2.00002 2.31007 0.137449
2.26829 1.84499 0.137449
1.73173 1.84497 0.137449
   </Points>
   <Cells>
    <DataArray type="Int64" Name="connectivity" format="ascii">
0
1
2
3
    </DataArray>
    <DataArray type="Int64" Name="offsets" format="ascii">
1
2
3
4
    </DataArray>
    <DataArray type="Int64" Name="types" format="ascii">
1
1
1
1
    </DataArray>
   </Cells>
  </Piece>
 </UnstructuredGrid>
</VTKFile>