<?xml version="1.0"?>
<VTKFile type="UnstructuredGrid" version="0.1" byte_order="LittleEndian" compressor="vtkZLibDataCompressor">
 <UnstructuredGrid GhostLevel="0">
  <Piece NumberOfPoints="4" NumberOfCells="4">
   <PointData>
    <DataArray type="Float64" Name="radius"/>
0.1
0.1
0.1
0.1
    <DataArray type="Float64" Name="mass"/>
10.472
10.472
10.472
10.472
    <DataArray type="Float64" Name="particleIndex"/>
0
1
2
3
    <DataArray type="Float64" Name="clusterIndex"/>
0
1
2
3
    <DataArray type="Float64" Name="v" NumberOfComponents="3"/>
-2.45701e-05 8.76594e-06 -2.09556e-12
1.04069e-05 0.118407 -1.10034e-12
0.102147 -0.0590393 -1.17996e-12
-0.102135 -0.0590467 -1.17996e-12
    <DataArray type="Float64" Name="w" NumberOfComponents="3"/>
7.72208e-05 0.000216443 4.94066e-324
-0.000279673 -0.000258082 -4.93602e-08
-8.35249e-05 0.000371277 -5.04068e-08
0.000363417 -0.00011292 -5.31984e-08
    <DataArray type="Float64" Name="FParticle" NumberOfComponents="3"/>
0 0 0
0 0 0
0 0 0
0 0 0
    <DataArray type="Float64" Name="FGrav" NumberOfComponents="3"/>
0 0 -102.73
0 0 -102.73
0 0 -102.73
0 0 -102.73
    <DataArray type="Float64" Name="MParticle" NumberOfComponents="3"/>
0 0 0
0 0 0
0 0 0
0 0 0
    <DataArray type="Float64" Name="FWall" NumberOfComponents="3"/>
1.54811 -0.552321 102.73
-0.00498278 -1.64367 102.73
-1.42064 0.826719 102.73
1.42542 0.818458 102.73
    <DataArray type="Float64" Name="MWall" NumberOfComponents="3"/>
-0.0552321 -0.154811 0
-0.164367 0.000498278 0
0.0826719 0.142064 0
0.0818458 -0.142542 0
    <DataArray type="Float64" Name="FHydro" NumberOfComponents="3"/>
0 0 0
0 0 0
0 0 0
0 0 0
    <DataArray type="Float64" Name="FSpringP" NumberOfComponents="3"/>
0 0 0
0 0 0
0 0 0
0 0 0
    <DataArray type="Float64" Name="FSpringW" NumberOfComponents="3"/>
1.54811 -0.552321 0
-0.00498278 -1.64367 0
-1.42064 0.826719 0
1.42542 0.818458 0
    <DataArray type="Float64" Name="MRolling" NumberOfComponents="3"/>
-0.690401 -1.93513 -1.90858e-320
0.164547 2.048 0.000391691
1.69089 -1.16716 0.000399996
-1.85531 -0.882738 0.000422148
   </PointData>
   <CellData>
   </CellData>
   <Points>
    <DataArray type="Float64" Name="Points" NumberOfComponents="3"/>
2.00001 2.00021 0.137449
2.00006 2.75768 0.137449
2.65518 1.62137 0.137449
1.34487 1.62132 0.137449
   </Points>
   <Cells>
    <DataArray type="Int64" Name="connectivity" format="ascii">
0
1
2
3
    </DataArray>
    <DataArray type="Int64" Name="offsets" format="ascii">
1
2
3
4
    </DataArray>
    <DataArray type="Int64" Name="types" format="ascii">
1
1
1
1
    </DataArray>
   </Cells>
  </Piece>
 </UnstructuredGrid>
</VTKFile>