<?xml version="1.0"?>
<VTKFile type="UnstructuredGrid" version="0.1" byte_order="LittleEndian" compressor="vtkZLibDataCompressor">
 <UnstructuredGrid GhostLevel="0">
  <Piece NumberOfPoints="4" NumberOfCells="4">
   <PointData>
    <DataArray type="Float64" Name="radius"/>
0.1
0.1
0.1
0.1
    <DataArray type="Float64" Name="mass"/>
10.472
10.472
10.472
10.472
    <DataArray type="Float64" Name="particleIndex"/>
0
1
2
3
    <DataArray type="Float64" Name="clusterIndex"/>
0
1
2
3
    <DataArray type="Float64" Name="v" NumberOfComponents="3"/>
7.2052e-05 0.000208453 -0.0925825
3.22048e-05 0.366472 -1.10034e-12
0.316918 -0.183174 -1.17996e-12
-0.316894 -0.183204 -1.17996e-12
    <DataArray type="Float64" Name="w" NumberOfComponents="3"/>
0.00116552 -0.000402769 -4.16307e-45
-0.000279585 -2.47069e-06 -0.000258033
0.000137852 0.000243249 -0.000258034
0.00014188 -0.000240921 -0.000258035
    <DataArray type="Float64" Name="FParticle" NumberOfComponents="3"/>
0 0 0
0 0 0
0 0 0
0 0 0
    <DataArray type="Float64" Name="FGrav" NumberOfComponents="3"/>
0 0 -102.73
0 0 -102.73
0 0 -102.73
0 0 -102.73
    <DataArray type="Float64" Name="MParticle" NumberOfComponents="3"/>
0 0 0
0 0 0
0 0 0
0 0 0
    <DataArray type="Float64" Name="FWall" NumberOfComponents="3"/>
0 0 0
-0.000159553 -1.64368 102.73
-1.42307 0.822531 102.73
1.423 0.822654 102.73
    <DataArray type="Float64" Name="MWall" NumberOfComponents="3"/>
0 0 0
-0.164368 1.59553e-05 0
0.0822531 0.142307 0
0.0822654 -0.1423 0
    <DataArray type="Float64" Name="FHydro" NumberOfComponents="3"/>
0 0 0
0 0 0
0 0 0
0 0 0
    <DataArray type="Float64" Name="FSpringP" NumberOfComponents="3"/>
0 0 0
0 0 0
0 0 0
0 0 0
    <DataArray type="Float64" Name="FSpringW" NumberOfComponents="3"/>
0 0 0
-0.000159553 -1.64368 0
-1.42307 0.822531 0
1.423 0.822654 0
    <DataArray type="Float64" Name="MRolling" NumberOfComponents="3"/>
0 0 0
0.16437 0.0197891 2.04792
-0.0659338 -0.151739 2.04793
-0.0977209 0.133365 2.04794
   </PointData>
   <CellData>
   </CellData>
   <Points>
    <DataArray type="Float64" Name="Points" NumberOfComponents="3"/>
2.00003 2.00017 0.145416
2.00003 2.37464 0.137449
2.32413 1.81271 0.137449
1.67589 1.81269 0.137449
   </Points>
   <Cells>
    <DataArray type="Int64" Name="connectivity" format="ascii">
0
1
2
3
    </DataArray>
    <DataArray type="Int64" Name="offsets" format="ascii">
1
2
3
4
    </DataArray>
    <DataArray type="Int64" Name="types" format="ascii">
1
1
1
1
    </DataArray>
   </Cells>
  </Piece>
 </UnstructuredGrid>
</VTKFile>