<?xml version="1.0"?>
<VTKFile type="UnstructuredGrid" version="0.1" byte_order="LittleEndian" compressor="vtkZLibDataCompressor">
 <UnstructuredGrid GhostLevel="0">
  <Piece NumberOfPoints="3" NumberOfCells="3">
   <PointData>
    <DataArray type="Float64" Name="Elongation" NumberOfComponents="3"/>
-4.78729e-06 9.03121e-07 6.3876e-07
-3.504e-06 -4.80207e-06 -4.47923e-07
5.8768e-06 1.97098e-06 -4.29639e-06
    <DataArray type="Float64" Name="norm"/>
4.91343e-06
5.96142e-06
7.54191e-06
   </PointData>
   <CellData>
   </CellData>
   <Points>
    <DataArray type="Float64" Name="Points" NumberOfComponents="3"/>
2 2.1732 0.0583625
2.15 1.9134 0.0583625
1.85 1.9134 0.0583625
   </Points>
   <Cells>
    <DataArray type="Int64" Name="connectivity" format="ascii">
0
1
2
    </DataArray>
    <DataArray type="Int64" Name="offsets" format="ascii">
1
2
3
    </DataArray>
    <DataArray type="Int64" Name="types" format="ascii">
1
1
1
    </DataArray>
   </Cells>
  </Piece>
 </UnstructuredGrid>
</VTKFile>