<?xml version="1.0"?>
<VTKFile type="UnstructuredGrid" version="0.1" byte_order="LittleEndian" compressor="vtkZLibDataCompressor">
 <UnstructuredGrid GhostLevel="0">
  <Piece NumberOfPoints="2" NumberOfCells="2">
   <PointData>
    <DataArray type="Float64" Name="Elongation" NumberOfComponents="3"/>
1.28934e-05 1.97792e-05 9.48629e-07
0.000143591 -3.19583e-05 -7.66889e-05
    <DataArray type="Float64" Name="norm"/>
2.36295e-05
0.000165894
   </PointData>
   <CellData>
   </CellData>
   <Points>
    <DataArray type="Float64" Name="Points" NumberOfComponents="3"/>
2.14998 1.9136 0.0582957
1.84998 1.9136 0.0582957
   </Points>
   <Cells>
    <DataArray type="Int64" Name="connectivity" format="ascii">
0
1
    </DataArray>
    <DataArray type="Int64" Name="offsets" format="ascii">
1
2
    </DataArray>
    <DataArray type="Int64" Name="types" format="ascii">
1
1
    </DataArray>
   </Cells>
  </Piece>
 </UnstructuredGrid>
</VTKFile>