<?xml version="1.0"?>
<VTKFile type="UnstructuredGrid" version="0.1" byte_order="LittleEndian" compressor="vtkZLibDataCompressor">
 <UnstructuredGrid GhostLevel="0">
  <Piece NumberOfPoints="3" NumberOfCells="3">
   <PointData>
    <DataArray type="Float64" Name="Elongation" NumberOfComponents="3"/>
-4.76247e-06 8.66883e-07 6.13131e-07
-3.49487e-06 -4.84236e-06 -4.28085e-07
5.86674e-06 1.97203e-06 -4.2906e-06
    <DataArray type="Float64" Name="norm"/>
4.8794e-06
5.98714e-06
7.53105e-06
   </PointData>
   <CellData>
   </CellData>
   <Points>
    <DataArray type="Float64" Name="Points" NumberOfComponents="3"/>
2 2.1732 0.0583625
2.15 1.9134 0.0583625
1.85 1.9134 0.0583625
   </Points>
   <Cells>
    <DataArray type="Int64" Name="connectivity" format="ascii">
0
1
2
    </DataArray>
    <DataArray type="Int64" Name="offsets" format="ascii">
1
2
3
    </DataArray>
    <DataArray type="Int64" Name="types" format="ascii">
1
1
1
    </DataArray>
   </Cells>
  </Piece>
 </UnstructuredGrid>
</VTKFile>