<?xml version="1.0"?>
<VTKFile type="UnstructuredGrid" version="0.1" byte_order="LittleEndian" compressor="vtkZLibDataCompressor">
 <UnstructuredGrid GhostLevel="0">
  <Piece NumberOfPoints="2" NumberOfCells="2">
   <PointData>
    <DataArray type="Float64" Name="Elongation" NumberOfComponents="3"/>
-1.21375e-05 3.68486e-06 2.60617e-06
1.36365e-05 2.33894e-05 7.14725e-08
    <DataArray type="Float64" Name="norm"/>
1.29495e-05
2.70744e-05
   </PointData>
   <CellData>
   </CellData>
   <Points>
    <DataArray type="Float64" Name="Points" NumberOfComponents="3"/>
1.99999 2.17318 0.0583533
2.14999 1.91337 0.0583533
   </Points>
   <Cells>
    <DataArray type="Int64" Name="connectivity" format="ascii">
0
1
    </DataArray>
    <DataArray type="Int64" Name="offsets" format="ascii">
1
2
    </DataArray>
    <DataArray type="Int64" Name="types" format="ascii">
1
1
    </DataArray>
   </Cells>
  </Piece>
 </UnstructuredGrid>
</VTKFile>