<?xml version="1.0"?>
<VTKFile type="UnstructuredGrid" version="0.1" byte_order="LittleEndian" compressor="vtkZLibDataCompressor">
 <UnstructuredGrid GhostLevel="0">
  <Piece NumberOfPoints="3" NumberOfCells="3">
   <PointData>
    <DataArray type="Float64" Name="Elongation" NumberOfComponents="3"/>
-4.96997e-06 1.13132e-06 8.00153e-07
-3.54837e-06 -4.5255e-06 -5.72909e-07
5.95325e-06 1.94153e-06 -4.3328e-06
    <DataArray type="Float64" Name="norm"/>
5.15953e-06
5.77922e-06
7.61472e-06
   </PointData>
   <CellData>
   </CellData>
   <Points>
    <DataArray type="Float64" Name="Points" NumberOfComponents="3"/>
2 2.1732 0.0583625
2.15 1.9134 0.0583625
1.85 1.9134 0.0583625
   </Points>
   <Cells>
    <DataArray type="Int64" Name="connectivity" format="ascii">
0
1
2
    </DataArray>
    <DataArray type="Int64" Name="offsets" format="ascii">
1
2
3
    </DataArray>
    <DataArray type="Int64" Name="types" format="ascii">
1
1
1
    </DataArray>
   </Cells>
  </Piece>
 </UnstructuredGrid>
</VTKFile>