<?xml version="1.0"?>
<VTKFile type="UnstructuredGrid" version="0.1" byte_order="LittleEndian" compressor="vtkZLibDataCompressor">
 <UnstructuredGrid GhostLevel="0">
  <Piece NumberOfPoints="3" NumberOfCells="3">
   <PointData>
    <DataArray type="Float64" Name="Elongation" NumberOfComponents="3"/>
-4.77909e-06 8.91483e-07 6.30528e-07
-3.50118e-06 -4.81521e-06 -4.41551e-07
5.87345e-06 1.97152e-06 -4.29453e-06
    <DataArray type="Float64" Name="norm"/>
4.90224e-06
5.96988e-06
7.53839e-06
   </PointData>
   <CellData>
   </CellData>
   <Points>
    <DataArray type="Float64" Name="Points" NumberOfComponents="3"/>
2 2.1732 0.0583625
2.15 1.9134 0.0583625
1.85 1.9134 0.0583625
   </Points>
   <Cells>
    <DataArray type="Int64" Name="connectivity" format="ascii">
0
1
2
    </DataArray>
    <DataArray type="Int64" Name="offsets" format="ascii">
1
2
3
    </DataArray>
    <DataArray type="Int64" Name="types" format="ascii">
1
1
1
    </DataArray>
   </Cells>
  </Piece>
 </UnstructuredGrid>
</VTKFile>