<?xml version="1.0"?>
<VTKFile type="UnstructuredGrid" version="0.1" byte_order="LittleEndian" compressor="vtkZLibDataCompressor">
 <UnstructuredGrid GhostLevel="0">
  <Piece NumberOfPoints="3" NumberOfCells="3">
   <PointData>
    <DataArray type="Float64" Name="Elongation" NumberOfComponents="3"/>
-5.25676e-06 1.44756e-06 1.02381e-06
-3.59309e-06 -4.11311e-06 -7.4613e-07
6.07599e-06 1.87158e-06 -4.38325e-06
    <DataArray type="Float64" Name="norm"/>
5.54772e-06
5.51223e-06
7.72226e-06
   </PointData>
   <CellData>
   </CellData>
   <Points>
    <DataArray type="Float64" Name="Points" NumberOfComponents="3"/>
2 2.1732 0.0583625
2.15 1.9134 0.0583625
1.85 1.9134 0.0583625
   </Points>
   <Cells>
    <DataArray type="Int64" Name="connectivity" format="ascii">
0
1
2
    </DataArray>
    <DataArray type="Int64" Name="offsets" format="ascii">
1
2
3
    </DataArray>
    <DataArray type="Int64" Name="types" format="ascii">
1
1
1
    </DataArray>
   </Cells>
  </Piece>
 </UnstructuredGrid>
</VTKFile>