<?xml version="1.0"?>
<VTKFile type="UnstructuredGrid" version="0.1" byte_order="LittleEndian" compressor="vtkZLibDataCompressor">
 <UnstructuredGrid GhostLevel="0">
  <Piece NumberOfPoints="1" NumberOfCells="1">
   <PointData>
    <DataArray type="Float64" Name="Elongation" NumberOfComponents="3"/>
2.79913e-05 1.63913e-05 1.13447e-05
    <DataArray type="Float64" Name="norm"/>
3.43641e-05
   </PointData>
   <CellData>
   </CellData>
   <Points>
    <DataArray type="Float64" Name="Points" NumberOfComponents="3"/>
2.14998 1.91343 0.0583499
   </Points>
   <Cells>
    <DataArray type="Int64" Name="connectivity" format="ascii">
0
    </DataArray>
    <DataArray type="Int64" Name="offsets" format="ascii">
1
    </DataArray>
    <DataArray type="Int64" Name="types" format="ascii">
1
    </DataArray>
   </Cells>
  </Piece>
 </UnstructuredGrid>
</VTKFile>