<?xml version="1.0"?>
<VTKFile type="UnstructuredGrid" version="0.1" byte_order="LittleEndian" compressor="vtkZLibDataCompressor">
 <UnstructuredGrid GhostLevel="0">
  <Piece NumberOfPoints="1" NumberOfCells="1">
   <PointData>
    <DataArray type="Float64" Name="radius"/>
0.1
    <DataArray type="Float64" Name="mass"/>
10.472
    <DataArray type="Float64" Name="particleIndex"/>
0
    <DataArray type="Float64" Name="clusterIndex"/>
0
    <DataArray type="Float64" Name="v" NumberOfComponents="3"/>
2.41071e-06 2.90402e-06 -5.92414e-11
    <DataArray type="Float64" Name="w" NumberOfComponents="3"/>
0.000100559 -0.000418912 -1.05471e-05
    <DataArray type="Float64" Name="FParticle" NumberOfComponents="3"/>
0 0 0
    <DataArray type="Float64" Name="FGrav" NumberOfComponents="3"/>
0 0 -102.73
    <DataArray type="Float64" Name="MParticle" NumberOfComponents="3"/>
0 0 0
    <DataArray type="Float64" Name="FWall" NumberOfComponents="3"/>
-9.31547 -2.94371 102.73
    <DataArray type="Float64" Name="MWall" NumberOfComponents="3"/>
-0.311712 0.944725 -0.00439029
    <DataArray type="Float64" Name="FHydro" NumberOfComponents="3"/>
0 0 0
    <DataArray type="Float64" Name="FSpringP" NumberOfComponents="3"/>
0 0 0
    <DataArray type="Float64" Name="FSpringW" NumberOfComponents="3"/>
-6.90874 -0.975395 4.1057
    <DataArray type="Float64" Name="MRolling" NumberOfComponents="3"/>
-0.715813 2.30743 0.00437817
   </PointData>
   <CellData>
   </CellData>
   <Points>
    <DataArray type="Float64" Name="Points" NumberOfComponents="3"/>
2 2 0.303274
   </Points>
   <Cells>
    <DataArray type="Int64" Name="connectivity" format="ascii">
0
    </DataArray>
    <DataArray type="Int64" Name="offsets" format="ascii">
1
    </DataArray>
    <DataArray type="Int64" Name="types" format="ascii">
1
    </DataArray>
   </Cells>
  </Piece>
 </UnstructuredGrid>
</VTKFile>