<?xml version="1.0"?>
<VTKFile type="UnstructuredGrid" version="0.1" byte_order="LittleEndian" compressor="vtkZLibDataCompressor">
 <UnstructuredGrid GhostLevel="0">
  <Piece NumberOfPoints="1" NumberOfCells="1">
   <PointData>
    <DataArray type="Float64" Name="radius"/>
0.1
    <DataArray type="Float64" Name="mass"/>
10.472
    <DataArray type="Float64" Name="particleIndex"/>
0
    <DataArray type="Float64" Name="clusterIndex"/>
0
    <DataArray type="Float64" Name="v" NumberOfComponents="3"/>
-0.00952054 0.0110181 -0.0445426
    <DataArray type="Float64" Name="w" NumberOfComponents="3"/>
-0.177757 0.107058 0.0353035
    <DataArray type="Float64" Name="FParticle" NumberOfComponents="3"/>
0 0 0
    <DataArray type="Float64" Name="FGrav" NumberOfComponents="3"/>
0 0 -102.73
    <DataArray type="Float64" Name="MParticle" NumberOfComponents="3"/>
0 0 0
    <DataArray type="Float64" Name="FWall" NumberOfComponents="3"/>
37.2105 -13.56 101.845
    <DataArray type="Float64" Name="MWall" NumberOfComponents="3"/>
-4.03624 2.04843 1.74743
    <DataArray type="Float64" Name="FHydro" NumberOfComponents="3"/>
0 0 0
    <DataArray type="Float64" Name="FSpringP" NumberOfComponents="3"/>
0 0 0
    <DataArray type="Float64" Name="FSpringW" NumberOfComponents="3"/>
-11.7136 -41.7117 21.8404
    <DataArray type="Float64" Name="MRolling" NumberOfComponents="3"/>
1.65374 -0.996001 -0.328441
   </PointData>
   <CellData>
   </CellData>
   <Points>
    <DataArray type="Float64" Name="Points" NumberOfComponents="3"/>
1.99991 1.99975 0.303381
   </Points>
   <Cells>
    <DataArray type="Int64" Name="connectivity" format="ascii">
0
    </DataArray>
    <DataArray type="Int64" Name="offsets" format="ascii">
1
    </DataArray>
    <DataArray type="Int64" Name="types" format="ascii">
1
    </DataArray>
   </Cells>
  </Piece>
 </UnstructuredGrid>
</VTKFile>