<?xml version="1.0"?>
<VTKFile type="UnstructuredGrid" version="0.1" byte_order="LittleEndian" compressor="vtkZLibDataCompressor">
 <UnstructuredGrid GhostLevel="0">
  <Piece NumberOfPoints="1" NumberOfCells="1">
   <PointData>
    <DataArray type="Float64" Name="radius"/>
0.1
    <DataArray type="Float64" Name="mass"/>
10.472
    <DataArray type="Float64" Name="particleIndex"/>
0
    <DataArray type="Float64" Name="clusterIndex"/>
0
    <DataArray type="Float64" Name="v" NumberOfComponents="3"/>
1.50482e-06 5.76047e-06 -7.38992e-11
    <DataArray type="Float64" Name="w" NumberOfComponents="3"/>
5.83222e-05 -0.000432267 -2.98843e-05
    <DataArray type="Float64" Name="FParticle" NumberOfComponents="3"/>
0 0 0
    <DataArray type="Float64" Name="FGrav" NumberOfComponents="3"/>
0 0 -102.73
    <DataArray type="Float64" Name="MParticle" NumberOfComponents="3"/>
0 0 0
    <DataArray type="Float64" Name="FWall" NumberOfComponents="3"/>
-9.31342 -2.94758 102.73
    <DataArray type="Float64" Name="MWall" NumberOfComponents="3"/>
-0.329671 0.938954 -0.0124251
    <DataArray type="Float64" Name="FHydro" NumberOfComponents="3"/>
0 0 0
    <DataArray type="Float64" Name="FSpringP" NumberOfComponents="3"/>
0 0 0
    <DataArray type="Float64" Name="FSpringW" NumberOfComponents="3"/>
-6.85662 -1.13738 4.1057
    <DataArray type="Float64" Name="MRolling" NumberOfComponents="3"/>
-0.698983 2.31256 0.0124326
   </PointData>
   <CellData>
   </CellData>
   <Points>
    <DataArray type="Float64" Name="Points" NumberOfComponents="3"/>
2 2 0.303274
   </Points>
   <Cells>
    <DataArray type="Int64" Name="connectivity" format="ascii">
0
    </DataArray>
    <DataArray type="Int64" Name="offsets" format="ascii">
1
    </DataArray>
    <DataArray type="Int64" Name="types" format="ascii">
1
    </DataArray>
   </Cells>
  </Piece>
 </UnstructuredGrid>
</VTKFile>