<?xml version="1.0"?>
<VTKFile type="UnstructuredGrid" version="0.1" byte_order="LittleEndian" compressor="vtkZLibDataCompressor">
 <UnstructuredGrid GhostLevel="0">
  <Piece NumberOfPoints="1" NumberOfCells="1">
   <PointData>
    <DataArray type="Float64" Name="radius"/>
0.1
    <DataArray type="Float64" Name="mass"/>
10.472
    <DataArray type="Float64" Name="particleIndex"/>
0
    <DataArray type="Float64" Name="clusterIndex"/>
0
    <DataArray type="Float64" Name="v" NumberOfComponents="3"/>
-2.36369e-06 1.79544e-05 -6.82809e-11
    <DataArray type="Float64" Name="w" NumberOfComponents="3"/>
-0.000122697 -0.000489102 -0.000128411
    <DataArray type="Float64" Name="FParticle" NumberOfComponents="3"/>
0 0 0
    <DataArray type="Float64" Name="FGrav" NumberOfComponents="3"/>
0 0 -102.73
    <DataArray type="Float64" Name="MParticle" NumberOfComponents="3"/>
0 0 0
    <DataArray type="Float64" Name="FWall" NumberOfComponents="3"/>
-9.30062 -2.94948 102.73
    <DataArray type="Float64" Name="MWall" NumberOfComponents="3"/>
-0.404868 0.913882 -0.0533645
    <DataArray type="Float64" Name="FHydro" NumberOfComponents="3"/>
0 0 0
    <DataArray type="Float64" Name="FSpringP" NumberOfComponents="3"/>
0 0 0
    <DataArray type="Float64" Name="FSpringW" NumberOfComponents="3"/>
-6.62985 -1.81448 4.10571
    <DataArray type="Float64" Name="MRolling" NumberOfComponents="3"/>
-0.623507 2.33346 0.0534696
   </PointData>
   <CellData>
   </CellData>
   <Points>
    <DataArray type="Float64" Name="Points" NumberOfComponents="3"/>
2 2 0.303274
   </Points>
   <Cells>
    <DataArray type="Int64" Name="connectivity" format="ascii">
0
    </DataArray>
    <DataArray type="Int64" Name="offsets" format="ascii">
1
    </DataArray>
    <DataArray type="Int64" Name="types" format="ascii">
1
    </DataArray>
   </Cells>
  </Piece>
 </UnstructuredGrid>
</VTKFile>