<?xml version="1.0"?>
<VTKFile type="UnstructuredGrid" version="0.1" byte_order="LittleEndian" compressor="vtkZLibDataCompressor">
 <UnstructuredGrid GhostLevel="0">
  <Piece NumberOfPoints="3" NumberOfCells="3">
   <PointData>
    <DataArray type="Float64" Name="radius"/>
0.1
0.1
0.1
    <DataArray type="Float64" Name="mass"/>
10.472
10.472
10.472
    <DataArray type="Float64" Name="particleIndex"/>
0
1
2
    <DataArray type="Float64" Name="clusterIndex"/>
0
1
2
    <DataArray type="Float64" Name="v" NumberOfComponents="3"/>
0 0 0
0 0 0
0 0 0
    <DataArray type="Float64" Name="w" NumberOfComponents="3"/>
0 0 0
0 0 0
0 0 0
    <DataArray type="Float64" Name="FParticle" NumberOfComponents="3"/>
0 0 0
0 0 0
0 0 0
    <DataArray type="Float64" Name="FGrav" NumberOfComponents="3"/>
-102.73 0 0
-102.73 0 0
-102.73 0 0
    <DataArray type="Float64" Name="MParticle" NumberOfComponents="3"/>
0 0 0
0 0 0
0 0 0
    <DataArray type="Float64" Name="FWall" NumberOfComponents="3"/>
0 0 0
0 0 0
0 0 0
    <DataArray type="Float64" Name="MWall" NumberOfComponents="3"/>
0 0 0
0 0 0
0 0 0
    <DataArray type="Float64" Name="FHydro" NumberOfComponents="3"/>
0 0 0
0 0 0
0 0 0
    <DataArray type="Float64" Name="FSpringP" NumberOfComponents="3"/>
0 0 0
0 0 0
0 0 0
    <DataArray type="Float64" Name="FSpringW" NumberOfComponents="3"/>
0 0 0
0 0 0
0 0 0
    <DataArray type="Float64" Name="MRolling" NumberOfComponents="3"/>
0 0 0
0 0 0
0 0 0
   </PointData>
   <CellData>
   </CellData>
   <Points>
    <DataArray type="Float64" Name="Points" NumberOfComponents="3"/>
7 2.9 0.7
7 3.1 0.7
7 3.3 0.7
   </Points>
   <Cells>
    <DataArray type="Int64" Name="connectivity" format="ascii">
0
1
2
    </DataArray>
    <DataArray type="Int64" Name="offsets" format="ascii">
1
2
3
    </DataArray>
    <DataArray type="Int64" Name="types" format="ascii">
1
1
1
    </DataArray>
   </Cells>
  </Piece>
 </UnstructuredGrid>
</VTKFile>