<?xml version="1.0"?>
<VTKFile type="UnstructuredGrid" version="0.1" byte_order="LittleEndian" compressor="vtkZLibDataCompressor">
 <UnstructuredGrid GhostLevel="0">
  <Piece NumberOfPoints="3" NumberOfCells="3">
   <PointData>
    <DataArray type="Float64" Name="radius"/>
0.1
0.1
0.1
    <DataArray type="Float64" Name="mass"/>
10.472
10.472
10.472
    <DataArray type="Float64" Name="particleIndex"/>
0
1
2
    <DataArray type="Float64" Name="clusterIndex"/>
0
1
2
    <DataArray type="Float64" Name="v" NumberOfComponents="3"/>
2.57928e-06 -4.26095e-06 0
1.02168e-05 3.48457e-06 0
-1.74919e-06 5.20771e-06 0
    <DataArray type="Float64" Name="w" NumberOfComponents="3"/>
0 0 0.00137977
0 0 -0.000602213
0 0 -0.00178956
    <DataArray type="Float64" Name="FParticle" NumberOfComponents="3"/>
19.5754 -204.32 0
0.0200629 -13.9118 0
-19.5955 218.232 0
    <DataArray type="Float64" Name="FGrav" NumberOfComponents="3"/>
-102.73 0 0
-102.73 0 0
-102.73 0 0
    <DataArray type="Float64" Name="MParticle" NumberOfComponents="3"/>
0 0 3.49748
0 0 1.51703
0 0 -1.98045
    <DataArray type="Float64" Name="FWall" NumberOfComponents="3"/>
77.9456 212.926 0
82.0762 6.87441 0
125.858 -228.749 0
    <DataArray type="Float64" Name="MWall" NumberOfComponents="3"/>
0 0 -5.26155
0 0 0.0521076
0 0 5.08858
    <DataArray type="Float64" Name="FHydro" NumberOfComponents="3"/>
0 0 0
0 0 0
0 0 0
    <DataArray type="Float64" Name="FSpringP" NumberOfComponents="3"/>
-33.7379 -9.2192 0
53.5423 9.20024 0
-19.8045 0.0189686 0
    <DataArray type="Float64" Name="FSpringW" NumberOfComponents="3"/>
-43.8633 29.0587 0
0.0467754 -0.518972 0
-38.9474 -32.7485 0
    <DataArray type="Float64" Name="MRolling" NumberOfComponents="3"/>
0 0 -5.42237
0 0 1.56744
0 0 6.21268
   </PointData>
   <CellData>
   </CellData>
   <Points>
    <DataArray type="Float64" Name="Points" NumberOfComponents="3"/>
4.25182 2.77522 0.7
4.19915 2.96795 0.7
4.19934 3.16773 0.7
   </Points>
   <Cells>
    <DataArray type="Int64" Name="connectivity" format="ascii">
0
1
2
    </DataArray>
    <DataArray type="Int64" Name="offsets" format="ascii">
1
2
3
    </DataArray>
    <DataArray type="Int64" Name="types" format="ascii">
1
1
1
    </DataArray>
   </Cells>
  </Piece>
 </UnstructuredGrid>
</VTKFile>