<?xml version="1.0"?>
<VTKFile type="UnstructuredGrid" version="0.1" byte_order="LittleEndian" compressor="vtkZLibDataCompressor">
 <UnstructuredGrid GhostLevel="0">
  <Piece NumberOfPoints="637" NumberOfCells="637">
   <PointData>
    <DataArray type="Float64" Name="Elongation" NumberOfComponents="3"/>
0.000363967 0.000329938 0.000188902
-0.000882905 -0.000674638 -0.000392494
0.000297519 -0.000106028 0.000124565
0.000167425 -9.00479e-05 0.000152732
0.000227552 -0.00067846 -0.00101096
-6.55346e-06 6.39218e-06 1.74751e-06
0.000534932 0.00126115 0.000271115
1.90256e-05 1.55229e-05 1.49363e-05
-0.000226658 -0.000403778 -0.000191892
-2.30808e-05 -1.50263e-05 -1.37754e-05
3.65675e-06 -2.86282e-05 -1.26975e-06
3.31925e-05 8.40967e-05 7.71791e-06
-1.97755e-06 2.80774e-05 -1.01255e-05
-0.000680994 -0.00171765 -0.00258101
0.000101035 3.50177e-05 6.57685e-05
3.41677e-05 7.8038e-05 4.16468e-05
-0.00013382 -0.000207696 -0.000126282
3.25693e-06 -1.08129e-05 -1.43268e-06
8.0156e-06 -1.80541e-05 2.29849e-06
2.42158e-05 -8.55033e-07 -1.21533e-05
-0.000141615 -8.99183e-06 8.40448e-05
8.59359e-05 0.000358361 -0.000308826
-5.11897e-07 -2.48624e-05 -1.87765e-05
-0.00183021 -6.47875e-05 -0.00095391
-0.000658804 -0.000579915 -0.000742547
-3.72268e-06 -1.628e-05 -1.13328e-05
0.000246027 -0.000288506 0.00021952
7.72039e-05 0.000425497 0.000271299
-6.75768e-06 1.89066e-05 6.33837e-06
-6.28153e-06 -3.03792e-05 -5.71944e-07
0.000784812 0.000517621 -0.000348661
-9.80634e-06 -3.70854e-05 2.70021e-05
-9.71897e-05 2.25007e-06 6.57754e-05
0.000191338 -0.000272884 0.000255725
-0.000298247 0.000231342 -0.000255491
0.000319419 -0.000303392 0.00022975
7.41781e-07 2.90348e-05 1.90241e-05
5.85195e-05 -0.000575705 -0.00010641
-5.60177e-05 6.44333e-05 5.41502e-05
0.000106454 -3.41116e-05 6.00675e-05
-8.47496e-06 7.19104e-05 3.69993e-05
0.000321186 0.000399706 0.000182646
8.06106e-05 0.00011855 3.67261e-05
-0.000274931 -1.8996e-05 0.000163536
0.000120043 -1.54407e-05 7.09835e-05
-0.000238706 -0.000146804 -2.71884e-05
0.000685659 -0.000212178 0.000576351
-0.000151578 0.00014298 -9.63984e-05
-2.58661e-05 -0.000108341 7.29364e-05
-8.8084e-05 4.78062e-05 3.36172e-05
0.000776836 -0.00133422 -0.000406737
0.000335131 -0.000725275 -0.000189597
1.82164e-05 4.46711e-05 9.56992e-07
-0.000156356 -0.00017944 3.05145e-05
1.40835e-06 8.9085e-07 -2.42869e-07
6.18441e-05 -0.000173833 -0.00188167
0.000813455 -0.00115892 0.000692585
-0.000218113 -6.22547e-05 6.56224e-05
-0.00152266 0.00238662 0.00163325
-3.82662e-05 -0.000120996 6.52238e-05
-2.86557e-05 1.55062e-05 -4.11877e-05
-1.53273e-06 -7.7069e-07 -1.99367e-06
0.000668885 -0.00135976 0.000711772
-0.000122414 -7.54157e-05 0.000135219
4.4558e-05 -1.43404e-05 4.71227e-05
-5.93398e-07 6.06509e-06 4.03812e-06
-0.000404671 4.72937e-06 -0.0011094
6.06098e-06 1.7585e-05 -1.15116e-05
2.08443e-06 -4.21579e-06 -1.87739e-06
0.000161991 2.5884e-05 -9.88288e-05
0.000288196 8.43047e-05 0.00012696
-0.00140093 -0.000534022 0.00160966
0.000437662 -0.000299927 0.000578788
-0.00115197 -0.000287358 0.00101759
-0.00170215 0.00142963 0.00225189
-7.04963e-06 -6.70661e-06 2.15355e-06
-0.00220496 0.00200698 -0.000162062
-6.9897e-07 -3.13471e-05 2.40699e-05
-5.72622e-05 -0.000341231 -0.000354244
0.000255341 -0.000195849 -9.60924e-05
6.70337e-06 -8.2015e-07 -5.99752e-06
-4.99714e-07 4.9977e-06 -4.66401e-06
0.000694362 0.000886182 -0.00029275
1.48746e-05 -3.07569e-05 -1.04549e-05
-0.00228412 0.00132811 0.00239203
1.42373e-06 0.000199412 0.000111898
-1.42811e-05 -2.15636e-06 9.5421e-06
-8.6973e-05 -1.22437e-05 -3.80796e-05
-1.44382e-06 0.00292468 0.00217063
0.00146065 0.00114774 -0.00198943
-1.60221e-06 -7.32952e-06 5.02598e-06
-6.92138e-05 -0.000326431 0.000248719
-0.000259488 0.000684002 0.000462019
-0.000226773 -0.0010302 0.000939912
-0.000723081 0.00118335 -0.00115521
0.000195837 0.000233092 8.83136e-05
0.00102293 -0.0010373 0.00191696
5.77742e-05 9.71537e-05 -4.38981e-05
-1.51925e-05 7.14577e-07 -1.20189e-05
0.000288945 -7.83172e-06 -0.000212935
0.000253074 0.000645744 0.000378091
6.8758e-05 6.75642e-05 3.67987e-06
-0.000138855 0.000235612 0.000270748
0.000157092 3.44536e-05 6.29923e-05
-3.34536e-05 1.84608e-05 -3.57306e-05
2.12379e-06 4.19438e-05 -3.2136e-05
-0.000178756 0.000167124 4.20463e-05
-0.00087551 0.000250145 0.00105112
-4.47664e-06 -5.34404e-05 -1.85394e-05
-0.00148155 0.00136581 0.00123831
6.85754e-05 0.000239896 -0.000119925
0.000158254 -0.000289992 -0.000134552
-2.83073e-06 -7.96162e-05 5.34786e-05
0.0014805 0.000294013 0.000566203
-1.82982e-06 -3.93087e-06 1.90212e-06
-1.05542e-05 -8.86087e-06 -5.63286e-05
-0.000262093 0.000154149 -1.65671e-05
2.86833e-07 -9.16895e-07 -4.88553e-08
0.00149767 -0.000342813 -0.000619331
0.00113447 0.00123862 0.000838826
-0.000166275 -0.000845611 -0.000131619
-0.00178435 -0.000384195 0.0019957
6.20859e-05 -4.09468e-06 9.65183e-05
-0.000735003 -0.000753243 -0.0020943
-0.000602968 -0.00047387 0.0016054
-0.000348391 0.000305699 -0.000872561
4.49201e-05 0.000416308 0.000417661
-9.02083e-05 -3.31017e-05 -8.00993e-05
-1.95097e-05 -6.00368e-05 2.92085e-05
-1.99215e-06 -7.1909e-09 1.5857e-06
0.000527443 -0.000924927 -0.0033187
3.72819e-05 -0.000194584 -0.000268798
-1.46587e-05 -2.04506e-05 1.32489e-05
-0.00213887 0.00123049 -0.00337482
-0.000981917 -0.000886066 -0.00177398
0.000925648 0.000639336 0.000830642
-1.22136e-05 -1.3836e-07 3.2442e-05
-0.00142731 6.9701e-05 0.00123907
7.4174e-05 -7.08606e-05 3.27006e-05
-3.5925e-05 -5.0729e-05 5.8961e-05
-1.97572e-05 -3.50524e-06 -3.91969e-07
-0.000235464 -0.000356613 0.000719792
1.04221e-05 1.20398e-06 -6.90548e-06
-0.000127067 -8.05901e-05 8.11113e-05
-0.00578677 0.00372009 0.00578695
0.000740658 -0.000571113 0.000558432
-5.04634e-05 -4.52547e-05 1.22694e-05
0.001365 0.000111395 0.00162292
-0.000159861 -5.20682e-06 -6.03272e-05
2.29064e-05 4.59828e-05 3.64267e-05
0.0012541 -0.000141453 0.000880165
0.000200912 -0.000135916 0.000254293
0.00102669 0.000260172 0.0010209
0.00111667 -0.000841545 0.00127419
-0.000298738 9.81565e-05 0.000205854
-0.00107114 0.0018155 0.00108681
4.56546e-05 4.59214e-06 -4.1317e-05
1.08289e-06 -7.78223e-06 -5.58884e-06
-0.000194729 -0.000645049 0.000709189
-0.00185047 0.000133994 0.00170485
-0.000681356 -0.00175994 0.00112893
5.42822e-05 -0.000281684 -0.000122835
-0.000412804 -4.0156e-05 0.0003853
0.000203302 -0.000429513 -0.00153647
-7.5721e-05 -0.000591514 -0.00144354
8.72289e-05 -7.24352e-05 -1.54814e-05
1.20472e-07 -7.05491e-07 -4.12414e-07
0.00186238 -0.00253189 0.00278392
-1.49088e-05 6.42776e-05 -5.32138e-05
-4.40558e-06 -2.49867e-06 -4.87461e-07
-1.93241e-05 5.83563e-05 -6.30167e-05
-0.000164067 0.000183949 -7.94773e-06
-8.88868e-05 0.000149012 -0.000261017
3.81552e-05 0.000309957 0.000518709
-0.000153749 -0.00118715 0.000480643
0.00139909 0.00300564 -0.00320032
9.32991e-06 -6.52198e-09 -3.43452e-06
0.000141957 -7.55824e-05 -4.37263e-05
2.10797e-06 -2.02246e-06 2.47459e-06
-5.88597e-05 6.48644e-05 5.81233e-05
6.60669e-05 -0.000775293 -0.000602539
0.000385728 -0.000111791 -0.000280295
-9.50958e-05 4.24521e-05 -8.45081e-05
-0.00157179 -0.000857198 -0.00197026
-4.5506e-07 6.66527e-07 -8.12761e-07
-2.132e-05 -3.36493e-05 9.05048e-05
-6.36491e-06 -2.43724e-05 -3.34286e-05
7.55961e-06 1.85616e-05 -3.70776e-06
-2.95066e-05 6.03288e-05 -2.55262e-05
0.000111338 0.000528226 0.000754131
-2.25573e-05 7.30395e-05 -5.26345e-05
0.000473241 -0.000809354 -0.00259154
0.0002095 2.48283e-05 9.54899e-05
-0.000227672 3.09836e-05 0.000470769
0.000127725 4.24283e-05 4.50659e-05
-1.68629e-05 7.77271e-05 -6.43826e-05
-0.00049849 8.83293e-05 -0.000389552
-0.00134867 0.00110529 0.00106472
0.000202246 -0.00149665 0.0017788
0.000848979 -0.000547728 -3.31141e-06
0.000718228 -0.00199221 0.000199291
-0.000436436 -0.00010682 0.000563498
0.000103347 -6.68905e-05 -0.000111329
1.32287e-05 -0.000550855 -0.000412051
4.94761e-05 -0.000232641 -4.19116e-06
-8.40182e-06 -2.06613e-06 -1.78293e-05
4.10223e-06 -5.16636e-05 4.12882e-05
2.03259e-05 2.7717e-05 -4.52309e-05
-0.000310436 9.437e-07 0.000718436
0.00474463 -0.00195353 -0.00171908
-3.23115e-05 -3.52589e-06 -0.000679594
2.81696e-06 -9.16486e-08 -1.09497e-05
-0.00170272 -0.00202442 0.00139115
-0.0010454 -0.00113753 -0.00074637
0.000485115 -0.000170447 -0.000372828
0.00236187 -0.00266067 0.00172621
0.000112261 -1.98814e-05 3.63738e-05
0.000172173 -8.41492e-05 8.96539e-05
2.71147e-05 0.000114562 7.89746e-05
0.000255467 2.16684e-06 -0.00175582
-2.45795e-05 7.32446e-06 2.11436e-05
6.59604e-05 1.65273e-05 3.70483e-05
-8.34279e-06 -1.45154e-05 -8.06673e-06
0.00391878 -0.000121613 -0.0031786
-8.47962e-05 -4.18245e-05 -7.21398e-05
-0.00013396 0.000567227 0.000137232
-0.00135888 0.00033429 0.00142098
9.78092e-05 3.97808e-05 5.80056e-05
0.00173833 -0.000863811 -0.00151566
-2.62305e-07 5.09084e-06 1.26765e-06
4.68872e-06 -2.51944e-05 -1.46021e-05
-4.31269e-05 -4.31272e-05 1.35745e-05
2.66053e-05 -9.76431e-05 0.000109956
1.01807e-05 1.80277e-05 2.35126e-05
8.75905e-08 -2.11548e-05 2.32828e-05
-0.00186647 1.55802e-06 -0.00144287
0.00096605 -0.000550388 0.00182071
0 0 0
-2.22076e-05 1.98628e-05 -2.97876e-05
4.14928e-05 5.64258e-05 2.91824e-05
8.22167e-06 -9.33251e-07 -2.85682e-07
0.00078177 0.00167678 -0.000889169
0.00026708 -3.08398e-05 0.000114341
0.000162897 3.53972e-05 7.43748e-05
9.86744e-05 -0.000198615 -6.33288e-05
0.000377622 -0.000569483 -0.000292783
1.22101e-05 -2.39161e-06 1.4807e-05
-0.000287272 -0.00131037 -0.00187357
-0.000681771 5.51501e-05 0.000142948
-0.000620782 -0.000346714 -0.000527213
-0.000120684 1.66308e-05 -2.42631e-05
0.000238749 -7.14957e-05 0.000109909
-8.91208e-05 -9.51173e-05 0.000237901
0.00157974 -0.000344048 -0.00185021
-0.000318303 -4.13196e-05 3.78227e-05
0.00298219 0.0035993 -0.00154975
0.000657768 -0.000469797 -0.000578173
-0.000390098 -0.000645977 0.000369392
5.01367e-06 1.56251e-05 7.66089e-06
0.000561839 0.000582882 0.000666517
1.12337e-05 -1.62501e-05 -1.52162e-05
4.71732e-06 0.000780898 -0.000774551
0.000261359 0.000240961 4.08196e-05
-7.22269e-05 -1.24671e-05 -6.93275e-05
-2.59377e-05 -5.49926e-05 -1.49042e-05
-7.76818e-08 2.13396e-07 -2.65606e-07
-0.000357309 -0.000109895 -0.000187971
-2.30678e-05 -4.05245e-05 8.58582e-06
-2.75915e-05 -1.58689e-05 -1.75474e-05
0.000354341 -0.000738946 -0.00232987
0.00185513 0.0011881 0.000729003
-0.00322135 0.0024182 -0.0009552
2.67967e-05 6.48249e-06 -3.05543e-05
0.000128673 0.000795331 -0.000574005
-0.000509831 -0.00159812 -0.00075682
0.000426162 -5.35308e-06 0.00120834
-0.00112373 0.000396808 -0.000479232
-1.18683e-07 2.85433e-07 1.42366e-07
-1.72053e-06 1.30155e-05 7.68957e-06
0.000164414 -2.86484e-05 0.000139534
0.00275594 7.16751e-06 -0.00753517
-1.13976e-06 1.72814e-05 3.97553e-06
-6.58135e-05 3.3552e-05 -3.48335e-05
-0.00114061 0.000215015 -0.000945837
-0.000126503 0.00020542 0.000220117
0.000284652 1.81111e-05 -0.000123343
-7.75106e-05 -0.000170441 4.05971e-05
7.49703e-05 0.000133165 -9.1427e-06
0.00015187 -3.05169e-05 2.75535e-05
6.57102e-05 -7.31273e-05 -8.72286e-05
0.00386708 -0.00151228 -0.00114926
-0.00302591 -0.00270247 0.00351155
3.84771e-06 -4.06482e-05 1.75784e-05
-8.16507e-05 0.000372385 -9.46863e-05
0.000824667 0.00041557 -0.00143183
-0.000177015 9.5883e-05 2.23677e-05
-0.000469603 -0.000379282 0.00389727
5.83197e-05 6.02934e-05 -1.36299e-05
1.90815e-05 9.17962e-06 -9.70767e-07
7.63813e-05 0.000136472 -6.93078e-05
0.000279266 0.000149694 0.000345711
-3.57959e-05 -4.64538e-05 -1.3048e-05
-2.20519e-07 -1.36459e-05 -0.000162172
0.000413865 -0.000423211 -0.000385972
-4.04027e-05 -8.92029e-05 -7.4507e-06
-0.000411841 -3.65802e-05 4.50126e-05
-2.68288e-05 -5.84539e-06 3.38194e-05
-5.95484e-05 -2.61932e-05 9.20835e-06
-7.75732e-05 -6.46501e-05 1.7586e-05
-0.000177687 0.000251868 0.00073956
-7.5282e-06 -2.67877e-05 -1.78535e-06
2.50225e-05 -1.66452e-06 -1.79667e-05
-0.00258439 0.000365394 0.00117749
1.49158e-05 -3.3476e-05 -3.33329e-05
4.22832e-06 4.82049e-08 2.24426e-06
-3.96228e-05 4.66252e-05 -0.000109692
-9.54716e-05 5.40982e-05 -8.87986e-05
0.000305242 0.000201736 0.000370726
0.00192836 2.71226e-05 -0.0016001
-7.17888e-06 -3.93513e-05 3.33758e-05
2.77434e-06 6.92274e-06 -3.63505e-06
0.00101763 -0.0014184 8.13392e-05
0.000646716 -0.000305859 -0.0012327
5.2694e-06 -1.78969e-06 -4.02753e-06
0.000166484 -0.000636634 -0.000790775
0.000443863 -0.00206462 0.000856697
0.00206411 -0.00238318 0.00418889
-1.34845e-06 -6.51331e-07 -2.29862e-06
-0.000507544 0.000343491 1.96775e-05
2.80881e-05 8.91263e-05 -3.60162e-05
-0.000158106 -9.24423e-05 -5.44033e-05
-8.21375e-06 -1.01535e-05 -1.69636e-05
0.000291052 0.00115697 0.00146701
-0.00270072 0.000170978 0.00219686
7.56778e-05 6.65146e-05 3.0485e-06
0.00019406 -0.000122755 1.17458e-05
-2.2042e-07 2.77014e-07 2.35684e-07
0.00180566 -0.00238645 -0.00168505
-4.23568e-05 0.000174472 7.85995e-05
0.00110475 0.000796506 0.00142822
-0.00322158 -0.000968949 0.00272899
-0.000178674 2.70656e-05 -0.000131169
-0.00167077 -0.000517933 -0.000436079
-2.94289e-05 0.00137002 -0.000572349
-0.000608462 1.785e-05 0.000913111
4.36593e-05 5.49303e-07 -2.52681e-06
-0.00127138 -0.000357986 0.000677028
0.000400786 0.000741452 0.000996525
-0.000196794 0.000226388 8.43273e-05
-0.00265723 -0.00163801 0.00344096
-3.57803e-06 2.1987e-06 -0.00105696
-0.000534603 5.71047e-05 -0.000396207
0.00255095 -0.00132914 0.00166668
-0.000117825 1.28309e-05 -7.10278e-05
6.86616e-06 3.43036e-05 3.88553e-06
3.52997e-05 8.39296e-05 4.96371e-05
-0.00319121 0.00192701 -0.00748769
0.00027649 -4.70299e-05 -0.000348144
-9.43301e-06 -2.64634e-05 1.50431e-05
-1.11626e-06 0.000220865 0.000532021
-0.000272096 0.00162248 0.00264449
-8.30869e-06 1.73998e-05 -3.37036e-05
-9.50661e-05 0.000353387 -0.00072357
0.000336069 0.000401088 2.97584e-05
-0.000117963 0.00234746 -0.000731051
-0.00244451 0.000689471 0.00207873
-0.00254152 0.000859614 0.00038477
-2.02304e-06 4.37328e-06 1.23371e-06
-0.00131479 0.000939437 -0.00106564
0.00118824 0.000517543 -0.00127745
1.11558e-06 6.35419e-05 -5.78602e-05
-0.000224902 0.000332717 0.00015606
-0.00100135 0.000645635 -0.000157605
2.15186e-06 -4.85636e-05 7.28907e-06
-0.00019334 7.23266e-05 -0.000167522
-0.000576924 0.000461513 -0.00055713
-0.00177528 0.00147173 0.00248729
-3.69913e-05 3.01246e-06 -1.35149e-05
-0.000149413 -8.0755e-05 -0.000109569
6.23995e-05 -0.000252745 5.79201e-05
3.39987e-05 -0.00013605 -0.00103612
2.83137e-05 0.000123309 3.66572e-06
-6.1796e-05 9.41135e-06 0.000112877
-1.92455e-05 -1.94057e-05 -0.000211782
-0.000124229 -0.000760351 0.000749182
-1.90249e-05 -2.2866e-06 1.98706e-05
0.000335014 -0.000238478 -4.21395e-05
-5.32598e-06 1.03728e-05 1.2614e-06
-6.8089e-05 -7.89267e-05 -8.57203e-05
-0.00564624 0.00444414 -0.00725883
-6.04517e-06 4.1604e-05 3.78771e-05
-8.0244e-05 0.000119825 7.03896e-05
2.06618e-05 -0.000167627 -2.66179e-05
1.32342e-05 7.48839e-05 1.58119e-05
4.01436e-06 0.000643789 -0.000584042
0.000185699 -0.000108977 0.00010791
6.62919e-06 0.000667284 2.60794e-05
-0.000330179 1.15476e-05 -0.000691766
-0.000601102 -0.000875594 0.000727526
4.09177e-06 1.08255e-05 -3.95298e-06
-4.27757e-05 5.6386e-05 1.7338e-05
1.8965e-08 -2.36069e-08 -1.19833e-08
-4.43481e-06 8.48052e-05 -5.28004e-05
-0.000855964 0.000474445 -0.000431748
-0.00177058 -0.000880147 -0.00127151
-2.09914e-05 -1.06349e-05 8.57977e-06
-1.17141e-05 4.44823e-06 3.08523e-05
-6.94454e-06 -0.000289576 3.95898e-05
0.000103167 -0.000228256 -9.24298e-05
-2.67372e-06 -0.000226675 0.000251421
0.00358701 0.000796901 0.00094546
-6.69351e-05 -0.000184989 0.000126464
0.00218448 0.00413583 0.00381927
0.00137459 -0.00132857 -0.00180984
-0.000337206 0.000585818 0.000463737
8.40628e-07 -7.88047e-08 -7.29425e-07
6.52645e-06 -6.35521e-06 -1.31913e-07
0.00249931 0.00380105 0.00017787
-0.000661437 0.000117871 0.000112947
7.81289e-05 0.000408947 -0.000225399
-0.00126668 -0.00190091 -0.00150829
-0.00172714 -0.00245764 -0.00344685
6.13282e-05 7.19422e-05 2.56681e-05
-0.000461469 -0.000121195 0.000421809
-0.000655498 0.000668336 0.000232945
0.000111105 -0.000170284 -7.36112e-05
-0.000482686 0.000708523 -0.000454384
-3.71375e-05 7.30202e-05 5.34524e-05
0.000618994 0.000259289 -0.00201303
-0.000490615 -0.00258278 0.000934242
7.16944e-05 0.00152074 0.00652132
6.46478e-06 -4.05288e-06 -2.52646e-06
2.08213e-05 -1.21914e-05 1.24923e-05
3.85289e-05 8.16322e-05 1.64249e-05
1.40251e-05 -0.000433518 -4.15566e-05
-1.92453e-05 0.000519698 -0.000323466
2.36398e-06 -5.33166e-06 -4.54596e-06
0.00066158 -0.000320961 -4.13658e-05
0.00371609 -0.00150286 0.00223761
2.32233e-08 2.33279e-06 -4.56955e-06
-0.00212644 -0.000536656 0.000883457
0.000860586 -0.00112926 -0.00495734
-2.64148e-05 0.000619972 0.00226956
-0.000236141 -7.58066e-05 1.74411e-05
-0.000605985 -0.000338846 0.000231717
1.49581e-05 2.59346e-05 7.45026e-06
-0.000417333 9.61253e-05 5.01917e-05
0.000119451 -8.14608e-05 0.000169985
0.000389969 2.24656e-05 0.000409563
-0.000261717 0.000192245 0.000557115
-0.000765734 -0.00226703 -0.000244733
-2.36203e-05 1.61716e-05 -1.52478e-05
-0.00453706 0.000828396 0.00601852
-0.00441171 -0.00152097 0.00579483
-1.48666e-06 -2.59087e-06 -5.72824e-06
0.0020808 -0.000439781 -0.00106723
7.83437e-05 -0.000140123 6.28571e-05
-5.81082e-06 1.92653e-05 1.61086e-05
-0.000932066 0.0002599 -0.000114763
-8.30245e-06 -8.25146e-05 4.65228e-05
0.000574307 5.39543e-05 8.77926e-05
-0.000425312 -0.00010983 -0.003586
-1.22237e-06 8.86368e-08 -7.50214e-07
0.000931508 -0.000126655 -0.000933791
-0.00453436 0.000844443 -8.49094e-05
-1.10903e-05 -2.1095e-05 -5.86289e-06
-0.000727302 -0.00122457 4.23263e-05
-0.000133895 -0.000517393 -2.5357e-05
0.000617107 0.000852333 -0.00579477
-0.000965594 -0.000233977 4.34252e-05
-0.00129279 0.00265047 -0.000286048
-0.000209384 -0.00131442 0.00505954
-6.93584e-06 9.09517e-05 1.18847e-05
-0.000403396 7.34216e-05 -0.000312259
-3.53372e-07 -7.5821e-08 3.92182e-08
0.00333056 -0.00139349 -0.00063554
0.00104897 0.000549561 0.000520614
-0.00116781 -0.00228444 0.00116271
3.63869e-05 0 -0.000412012
0.00140823 0 -0.00267316
1.54585e-05 0 -9.39025e-06
6.49382e-05 0.000234686 0
-1.08017e-05 5.29109e-06 0
2.94312e-05 1.00869e-06 0
1.21653e-05 2.0375e-05 0
-2.70743e-06 7.63141e-06 0
2.6369e-06 1.35122e-05 0
-7.12987e-06 -5.15876e-06 0
3.21222e-05 -2.36523e-05 0
6.63627e-05 3.95382e-05 0
-2.22998e-05 -5.96376e-06 0
5.55016e-07 6.22661e-06 0
7.42352e-06 3.68633e-05 0
-9.04891e-06 1.2237e-05 0
-0.000182972 0.000173854 0
-0.000603019 0.000658916 0
1.26483e-05 -3.60402e-06 0
-0.00128894 0.000283141 0
-0.00113021 -0.000131957 0
-0.00174751 -0.000843861 0
1.65973e-06 -1.45087e-05 0
-4.9603e-06 6.07581e-06 0
0.000104654 0.00140083 0
0.00182304 0.00151597 0
0.000262821 0.000689643 0
0.00185157 -0.0028691 0
0.00060626 -0.000486968 0
3.39215e-05 9.30742e-05 0
1.26134e-06 1.46246e-05 0
1.04607e-05 4.02808e-05 0
-0.000538868 -0.000387975 0
-1.04095e-06 1.4893e-05 0
8.57516e-05 5.05345e-05 0
-0.000101216 -0.000124666 0
-5.96257e-06 1.67926e-05 0
0.000133713 0.000134497 0
-7.98191e-06 2.083e-05 0
1.4453e-06 1.54153e-05 0
1.31798e-05 -6.44987e-06 0
-0.000503302 0.000198421 0
6.24353e-05 1.33304e-05 0
-3.49784e-10 1.21185e-09 0
1.41593e-05 3.8437e-06 0
0.000166451 8.89083e-05 0
0.000471352 0.000476928 0
-5.3736e-06 1.36572e-05 0
3.22567e-05 -5.83114e-05 0
4.51969e-05 0.000159229 0
-1.33899e-05 3.87819e-05 0
9.9974e-05 -0.000216299 0
-1.90507e-07 1.37214e-05 0
0.000304879 0.000269914 0
8.27281e-06 2.24456e-05 0
2.1693e-05 3.45443e-05 0
-9.24292e-06 2.06175e-05 0
0.000109296 -0.000551346 0
3.75968e-05 2.98981e-05 0
5.89657e-07 1.46644e-05 0
3.04302e-05 -0.000309984 0
1.34772e-05 -5.80884e-06 0
1.44071e-05 -3.30048e-06 0
2.29398e-05 2.13309e-05 0
8.83948e-05 2.05334e-05 0
9.47109e-06 1.12041e-05 0
8.63303e-06 -1.42195e-05 0
-3.12062e-06 2.6465e-06 0
0.00455764 -0.0029172 0
-0.00150195 0.00251684 0
-2.07513e-05 1.75622e-05 0
0.000235285 -0.00064033 0
-9.03071e-05 -8.84551e-06 0
-3.08241e-06 8.88821e-06 0
0.000372285 -0.000895244 0
-1.46566e-07 3.33729e-06 0
7.88444e-05 -0.000961438 0
-9.28299e-06 -2.58418e-05 0
6.91815e-06 -7.2011e-07 0
6.64275e-05 -0.000143111 0
3.34909e-06 8.90186e-06 0
0.000310134 -6.90368e-05 0
4.02307e-05 -8.47261e-06 0
0.00101563 0.00033966 0
1.27216e-05 2.87156e-06 0
0.00022742 9.5696e-05 0
1.7374e-05 5.01803e-06 0
0.000100325 -2.37101e-05 0
-1.14156e-06 -1.49368e-05 0
-9.42732e-06 1.12558e-05 0
-4.05042e-06 -1.5071e-05 0
0.000124617 0.000102317 0
2.83461e-05 -1.52526e-05 0
-0.000343952 -1.95525e-05 0
-0.000108579 4.29058e-05 0
-2.09939e-05 -5.051e-05 0
9.64053e-05 5.93898e-05 0
5.88235e-05 -3.78744e-05 0
-0.00137768 -0.00175036 0
1.4502e-05 2.25149e-06 0
-0.00354741 0.006596 0
0.000114588 -0.000149133 0
0.000164263 -0.000427553 0
-1.41749e-05 3.80282e-06 0
-1.78957e-07 -1.6932e-06 0
-2.82864e-05 -0.000844158 0
1.65894e-06 2.69569e-06 0
-4.43687e-05 -3.28247e-05 0
0.00149556 -0.00228129 0
-3.76507e-05 2.76066e-06 0
-5.54839e-05 -1.07253e-05 0
-7.93085e-05 -4.75434e-05 0
5.8126e-07 -2.93004e-05 0
0.000335667 5.18061e-05 0
0.00041536 -0.000659293 0
0.000162951 -0.000485898 0
-1.15204e-05 1.19894e-05 0
-0.000385264 -0.00134511 0
1.05011e-05 -1.05432e-05 0
0.000104632 0.00010005 0
-0.00274038 -0.00118974 0
0.000694255 -0.000318906 0
0.000412641 -0.000164741 0
-0.000482573 7.91844e-05 0
6.58926e-06 2.6452e-06 0
-1.36199e-05 4.271e-06 0
4.22687e-05 -0.000130495 0
-0.000370136 0.000548759 0
0.00225916 -0.00430274 0
-1.87409e-05 7.84989e-05 0
-0.000234834 -0.000481705 0
-6.43543e-05 4.16176e-05 0
0.000118816 -0.000337573 0
5.70985e-05 9.08459e-05 0
4.86102e-05 -6.59298e-05 0
-2.41726e-05 -3.7086e-05 0
0.00358783 0.00223986 0
1.86766e-05 -1.10336e-06 0
-0.00244421 -6.78097e-05 0
4.73358e-06 4.04307e-05 0
-8.05963e-06 1.05672e-05 0
-0.000789141 -0.000616372 0
3.95738e-10 1.19689e-09 0
-0.000149122 -0.000187474 0
-0.000314746 -1.47862e-05 0
1.20747e-05 -9.62243e-07 0
-0.00125316 -0.00119537 0
0.00450917 0.00240246 0
1.33758e-05 -2.70519e-06 0
-2.3997e-06 -2.5167e-07 0
0.000331537 0.000775367 0
-8.10915e-08 5.89189e-07 0
1.21088e-05 -1.72257e-06 0
-0.00160856 0.000695072 0
1.17193e-05 -9.2906e-06 0
5.12259e-05 0.000106979 0
-0.000759559 0.00103712 0
0.000295891 -0.000136034 0
1.17781e-05 8.75564e-06 0
    <DataArray type="Float64" Name="norm"/>
0.000526323
0.00117843
0.000339523
0.000243858
0.0012386
9.31995e-06
0.00139648
2.87407e-05
0.000501231
3.07941e-05
2.88887e-05
9.07389e-05
2.99128e-05
0.00317422
0.000125538
9.48252e-05
0.000277475
1.13833e-05
1.98868e-05
2.71079e-05
0.000164922
0.000480812
3.11602e-05
0.0020649
0.00114965
2.01824e-05
0.000438126
0.000510501
2.10547e-05
3.10271e-05
0.00100271
4.69106e-05
0.000117377
0.000420085
0.000455792
0.00049685
3.47201e-05
0.000588374
0.000101103
0.000126902
8.13135e-05
0.000544321
0.00014799
0.000320455
0.000140312
0.000281551
0.000920505
0.000229591
0.000133141
0.000105709
0.00159658
0.000821148
4.82521e-05
0.000239952
1.68406e-06
0.00189069
0.00157622
0.000236125
0.00326833
0.000142683
5.25169e-05
2.6302e-06
0.00167421
0.000197375
6.642e-05
7.31053e-06
0.00118091
2.18743e-05
5.06382e-06
0.000191516
0.000326011
0.00219973
0.000785175
0.00156368
0.0031642
9.96562e-06
0.00298598
3.95284e-05
0.000495183
0.000335842
9.03206e-06
6.85417e-06
0.00116325
3.57288e-05
0.00356411
0.000228667
1.73104e-05
9.57301e-05
0.00364217
0.00272188
9.03047e-06
0.000416184
0.000865248
0.00141286
0.0018049
0.000316991
0.00240772
0.000121259
1.9385e-05
0.000359015
0.000789927
9.64683e-05
0.000384835
0.000172722
5.23127e-05
5.28821e-05
0.000248298
0.00139067
5.67417e-05
0.00236513
0.00027683
0.000356713
9.59516e-05
0.00161212
4.73477e-06
5.79898e-05
0.000304514
9.61954e-07
0.00165653
0.00187746
0.000871796
0.0027045
0.000114836
0.00234386
0.00177917
0.000988024
0.000591414
0.000125097
6.9557e-05
2.5462e-06
0.00348532
0.000333924
2.84366e-05
0.00418071
0.00221275
0.00139841
3.46652e-05
0.00189139
0.000107668
8.56764e-05
2.00695e-05
0.000837088
1.25601e-05
0.000170938
0.00898969
0.00108931
6.88846e-05
0.00212356
0.000170945
6.29764e-05
0.00153866
0.000351431
0.00147106
0.00189175
0.000375839
0.00237161
6.17457e-05
9.64214e-06
0.000978242
0.00251966
0.00219912
0.000312059
0.000566106
0.00160827
0.00156186
0.000114435
8.26025e-07
0.0041987
8.47679e-05
5.08823e-06
8.8034e-05
0.000246614
0.000313425
0.000605465
0.00128996
0.00460797
9.94199e-06
0.000166663
3.82852e-06
0.00010512
0.000984122
0.000489744
0.000134116
0.00266218
1.14539e-06
9.88835e-05
4.18569e-05
2.03821e-05
7.18456e-05
0.000927433
9.28116e-05
0.00275592
0.00023157
0.000523849
0.000141932
0.000102328
0.000638784
0.00204309
0.00233345
0.00101034
0.00212708
0.000720706
0.000165979
0.000688042
0.00023788
1.98177e-05
6.62622e-05
5.68086e-05
0.000782638
0.00541138
0.000680371
1.13066e-05
0.00298879
0.00171578
0.000635129
0.00395442
0.00011967
0.000211572
0.000141763
0.00177431
3.32393e-05
7.74371e-05
1.85842e-05
0.00504729
0.000118928
0.00059877
0.00199437
0.000120473
0.00246276
5.25285e-06
2.94952e-05
6.24832e-05
0.00014944
3.13287e-05
3.14583e-05
0.00235915
0.00213334
0
4.21309e-05
7.58758e-05
8.2794e-06
0.00205265
0.000292158
0.000182537
0.000230641
0.000743392
1.93405e-05
0.00230431
0.000698775
0.000885175
0.000124217
0.000272383
0.000271269
0.00245708
0.000323195
0.00492444
0.000993807
0.000840186
1.811e-05
0.00104865
2.49358e-05
0.00109989
0.000357823
0.000100888
6.26026e-05
3.49455e-07
0.000418426
4.74139e-05
3.63459e-05
0.00246979
0.00232046
0.00413971
4.1154e-05
0.000989237
0.00184029
0.0012813
0.00128448
3.40332e-07
1.52149e-05
0.000217537
0.00802335
1.77694e-05
8.16733e-05
0.00149727
0.000326576
0.000310754
0.000191588
0.000153091
0.000157337
0.000131432
0.00430837
0.00536567
4.44531e-05
0.000392814
0.00170379
0.000202554
0.00394374
8.49839e-05
2.11969e-05
0.000171062
0.00046895
6.00796e-05
0.000162745
0.000706658
9.82092e-05
0.000415906
4.35627e-05
6.5703e-05
0.000102501
0.000801224
2.78826e-05
3.08496e-05
0.00286341
4.954e-05
4.78725e-06
0.000125603
0.000141162
0.000520872
0.00250592
5.20961e-05
8.29668e-06
0.00174759
0.00142525
6.86954e-06
0.00102876
0.00227895
0.00524279
2.74339e-06
0.000613168
0.000100148
0.000191057
2.14085e-05
0.00189088
0.00348558
0.0001008
0.000229926
4.25286e-07
0.00343438
0.000195991
0.0019735
0.00433184
0.000223299
0.00180275
0.00148506
0.00109741
4.37358e-05
0.00148422
0.00130516
0.000311594
0.00464587
0.00105696
0.000667864
0.00332442
0.000138175
3.51991e-05
0.000103702
0.00836437
0.00044706
3.18683e-05
0.000576046
0.00311445
3.88293e-05
0.000810848
0.000524118
0.00246149
0.00328209
0.0027104
4.97396e-06
0.00193567
0.00181979
8.59455e-05
0.000430855
0.00120183
4.91547e-05
0.000265848
0.000925326
0.00339179
3.94979e-05
0.000202117
0.0002667
0.00104556
0.000126571
0.000129029
0.000213538
0.00107463
2.76046e-05
0.000413379
1.17282e-05
0.000134957
0.0102138
5.65872e-05
0.000160473
0.00017098
7.76708e-05
0.000869244
0.000240842
0.000667827
0.000766611
0.00128735
1.22295e-05
7.2868e-05
3.25662e-08
9.99974e-05
0.00106966
0.00235082
2.5047e-05
3.32997e-05
0.000292352
0.000266997
0.000338528
0.00379415
0.000233868
0.00603853
0.00263251
0.000819721
1.11576e-06
9.11047e-06
0.0045526
0.000681285
0.000473441
0.00273731
0.00457206
9.79576e-05
0.00063684
0.000964683
0.000216239
0.000970286
9.78177e-05
0.00212195
0.00279003
0.00669667
8.03755e-06
2.71701e-05
9.175e-05
0.000435731
0.000612444
7.39464e-06
0.000736488
0.00459073
5.13062e-06
0.00236437
0.00515665
0.00235287
0.000248623
0.000731934
3.08522e-05
0.000431192
0.000223157
0.00056597
0.00064485
0.00240534
3.24335e-05
0.00758246
0.0074402
6.4603e-06
0.00237952
0.000172404
2.57761e-05
0.000974405
9.50892e-05
0.000583479
0.0036128
1.43697e-06
0.00132503
0.00461311
2.45431e-05
0.0014249
0.000535039
0.00588953
0.000994486
0.00296278
0.00523168
9.19868e-05
0.000515388
3.63536e-07
0.00366583
0.0012936
0.00281679
0.000413616
0.0030214
1.80871e-05
0.000243505
1.2028e-05
2.94484e-05
2.37305e-05
8.09744e-06
1.37671e-05
8.80045e-06
3.98907e-05
7.72482e-05
2.30835e-05
6.25129e-06
3.76033e-05
1.52193e-05
0.000252396
0.000893198
1.31517e-05
0.00131967
0.00113788
0.00194059
1.46033e-05
7.84348e-06
0.00140473
0.002371
0.000738026
0.00341468
0.000777617
9.90629e-05
1.46788e-05
4.16169e-05
0.000664006
1.49294e-05
9.95343e-05
0.000160581
1.78198e-05
0.000189654
2.23069e-05
1.54829e-05
1.46734e-05
0.000541002
6.38425e-05
1.26132e-09
1.46717e-05
0.000188707
0.000670546
1.46763e-05
6.66387e-05
0.000165519
4.10283e-05
0.000238286
1.37227e-05
0.000407191
2.39216e-05
4.07909e-05
2.25946e-05
0.000562075
4.80356e-05
1.46763e-05
0.000311474
1.46758e-05
1.47803e-05
3.13248e-05
9.07483e-05
1.46708e-05
1.6635e-05
4.09173e-06
0.0054113
0.00293093
2.71854e-05
0.000682189
9.07393e-05
9.40752e-06
0.000969566
3.3405e-06
0.000964665
2.74586e-05
6.95553e-06
0.000157776
9.51102e-06
0.000317725
4.11131e-05
0.00107093
1.30416e-05
0.000246734
1.80841e-05
0.000103088
1.49804e-05
1.46822e-05
1.56058e-05
0.000161239
3.21891e-05
0.000344507
0.000116749
5.46992e-05
0.00011323
6.99619e-05
0.00222751
1.46757e-05
0.00748941
0.000188072
0.000458022
1.46761e-05
1.70264e-06
0.000844632
3.16525e-06
5.51909e-05
0.00272782
3.77518e-05
5.65111e-05
9.24674e-05
2.93062e-05
0.000339641
0.000779225
0.000512494
1.66273e-05
0.00139919
1.48806e-05
0.000144769
0.00298751
0.000763997
0.000444311
0.000489026
7.10039e-06
1.42739e-05
0.00013717
0.00066192
0.00485977
8.0705e-05
0.000535898
7.66387e-05
0.000357872
0.0001073
8.19127e-05
4.42683e-05
0.0042296
1.87092e-05
0.00244515
4.07069e-05
1.329e-05
0.00100133
1.26062e-09
0.000239549
0.000315094
1.2113e-05
0.00173185
0.00510925
1.36466e-05
2.41286e-06
0.000843274
5.94743e-07
1.22307e-05
0.00175231
1.49551e-05
0.000118611
0.00128551
0.000325664
1.4676e-05
   </PointData>
   <CellData>
   </CellData>
   <Points>
    <DataArray type="Float64" Name="Points" NumberOfComponents="3"/>
9.92176 1.5656 0.22797
9.94578 1.78812 0.229689
9.94933 1.9985 0.229354
9.95476 2.23928 0.213281
10.0267 0.915841 0.192862
10.127 0.916137 0.193079
10.0235 1.14458 0.218308
10.1228 1.35619 0.22244
10.1339 1.56005 0.227729
10.1518 1.77469 0.226625
10.1598 1.98585 0.229945
10.1951 2.18905 0.236223
10.2115 2.4515 0.229356
10.225 0.904106 0.177062
10.3406 1.34922 0.22044
10.3395 1.55403 0.224897