<?xml version="1.0"?>
<VTKFile type="UnstructuredGrid" version="0.1" byte_order="LittleEndian" compressor="vtkZLibDataCompressor">
 <UnstructuredGrid GhostLevel="0">
  <Piece NumberOfPoints="725" NumberOfCells="725">
   <PointData>
    <DataArray type="Float64" Name="Elongation" NumberOfComponents="3"/>
0.000224259 0.000233657 0.000243935
0.000151647 0.000115323 0.000107374
6.47988e-05 -0.000171964 -0.000143565
0.000124997 0.000200199 -0.000203189
-1.78505e-05 1.14338e-05 1.44341e-07
2.8426e-05 -0.000208796 -7.69031e-05
0.000118059 0.000188014 -5.06409e-05
-9.77115e-05 -1.55352e-05 2.70742e-05
8.21992e-05 -2.96915e-05 -7.79694e-05
0.000272247 -0.000351044 -0.000463596
6.97735e-05 -6.41496e-05 9.76611e-05
6.7e-05 -0.000126601 6.01672e-05
0.000155737 -0.000208193 -0.000260444
0.000102183 3.76603e-06 -1.43019e-05
0.000950119 0.000551799 -0.000364662
-2.82327e-05 0.000159922 9.15575e-05
0.000355848 -0.000156552 6.76999e-05
0.00011281 0.000371203 -0.000130652
9.26731e-06 -4.68649e-05 8.61533e-07
-3.72066e-05 3.60599e-05 1.84865e-06
0.00029421 -0.000197138 -0.000354152
-0.000882186 -0.000194005 -0.000547727
6.52949e-05 3.28362e-05 -7.50629e-05
1.98687e-05 -8.38445e-06 2.16107e-05
-1.74402e-05 4.3178e-05 -4.16178e-05
-8.90869e-05 -0.000139369 -0.000155211
0.000103466 -0.00011437 0.000105996
-7.83484e-05 -0.000126481 -0.000107985
-9.55578e-05 -0.00011309 -7.71033e-05
0.002027 0.00105759 -0.00127247
5.6506e-05 -3.44539e-05 3.35302e-05
-3.32947e-05 3.52196e-05 6.7032e-06
9.5387e-06 -4.57502e-06 8.84381e-06
2.04769e-05 -4.26769e-05 3.5706e-05
0.000474056 -0.000332676 0.000288981
-0.000863243 0.000650751 -0.000620047
5.46956e-05 -3.69631e-05 -3.22714e-06
-5.15058e-05 -8.0883e-05 1.68723e-05
-6.77637e-06 -0.000169548 -1.97248e-05
-4.10179e-05 -4.34737e-05 1.05001e-05
0.000275108 -7.68371e-05 0.000163792
-5.85946e-06 6.14673e-05 2.48545e-05
-0.000150279 -6.56471e-05 4.70589e-05
0.000270129 2.50585e-05 0.000195237
0.000393262 4.92292e-05 0.000178914
0.000435183 0.000415513 0.00022175
-0.000149365 5.89082e-05 0.000824072
-0.000321938 -0.000178312 0.000187945
-3.72981e-05 7.30838e-05 -1.86566e-05
0.000491141 -0.000371054 -0.000748143
3.97407e-05 -0.000453378 -0.000286287
-6.93917e-05 0.000109592 -6.78767e-05
-8.49686e-05 -0.000491615 0.000346455
6.24112e-05 0.000264132 0.000173355
0.000549493 -0.00116349 -0.000613547
-0.000198117 -4.56531e-05 -0.00177863
0.0013978 0.000942304 -0.000147614
-9.85434e-06 -2.2519e-05 3.63947e-06
0.000468756 -0.000104169 -0.000278281
-2.94404e-05 3.92703e-05 -5.41367e-05
7.9723e-05 4.72142e-05 0.000101242
-9.52086e-05 8.01682e-05 0.000140725
7.66652e-05 -1.87167e-05 6.55373e-05
6.97251e-05 -0.000129934 8.48139e-05
0.000123002 3.96231e-05 -0.000115047
-0.000374878 0.000535734 0.000670715
8.84377e-05 3.12025e-05 6.54731e-05
0.00358355 0.00022504 -0.00311385
-2.71568e-05 -0.000186376 0.000135618
-0.000126344 1.9008e-05 -8.99095e-05
-3.27151e-05 1.93138e-05 -1.16377e-05
-1.48453e-08 -3.46093e-07 -2.01928e-07
7.13989e-05 2.47571e-05 -5.35306e-05
2.33588e-05 1.38715e-05 3.5967e-05
4.60113e-06 2.85986e-06 -1.28849e-05
0.00242102 -0.000174857 -0.00233307
-9.72855e-05 -1.98882e-05 6.89421e-05
-0.000772549 0.00203447 -0.00270023
-0.000730199 -0.00194709 -0.00253569
-0.00013224 0.000145494 0.000213544
-7.78913e-05 0.000518497 -0.000444002
-0.00176629 -0.00141168 0.00101233
0.00127993 0.00124727 0.000653787
-3.347e-05 1.25711e-05 2.94201e-05
-0.000118313 -1.7938e-05 -0.000120463
-6.85709e-05 0.000118368 8.37525e-05
3.76884e-06 1.32175e-05 6.36428e-06
-7.94881e-06 -1.54677e-06 -3.01378e-05
-0.000272139 -0.000948719 0.00151988
-5.18389e-05 6.7943e-05 -0.000294161
0.00021642 0.000358408 0.000464928
8.63807e-05 -0.000706695 -0.000859897
-0.00163619 0.000196483 -0.00221902
-6.02041e-05 0.000590269 -0.000207033
-0.00124505 0.000919942 -0.00269137
-8.17221e-05 -0.00209019 0.00177068
0.000478513 -7.99736e-06 0.000410406
4.57935e-05 9.35556e-05 7.53288e-05
-0.00180245 -0.00121197 -0.000286138
0.000807556 -3.68109e-05 0.000777996
-0.00093917 0.00247137 -0.00142051
6.84351e-05 0.00017053 0.000133484
0.00178741 -3.75502e-05 0.00228176
4.52666e-06 -0.000398791 -0.000223082
-0.000204334 -0.000322924 -0.000179989
0.00040321 -0.000840595 0.000422236
-9.46818e-05 -0.000282538 -0.000171429
6.40017e-05 -4.93378e-05 9.57047e-05
-0.000246581 0.000751212 0.000369275
-5.98503e-07 -6.9211e-05 -7.5445e-05
-7.05914e-05 -0.000762477 0.000647164
1.35791e-06 -2.39965e-05 1.70513e-05
9.04212e-05 -1.02046e-05 0.000116002
-2.1619e-05 -0.000280764 0.000460754
-4.47367e-05 -0.000387678 -9.82617e-05
-4.97961e-05 -9.00791e-05 -5.99692e-05
-2.34597e-05 4.22777e-05 9.17676e-06
-2.0488e-05 7.18779e-06 -1.57227e-05
-4.21289e-06 7.36219e-07 3.36764e-06
0.000351298 8.41189e-05 0.000156444
0.00144152 -0.00129359 -0.000303358
0.00039353 0.000342104 7.54154e-05
-6.74637e-05 1.58149e-05 -6.83287e-05
-0.00172598 -0.00103969 0.00262235
-3.67809e-06 6.68926e-05 7.90786e-05
-0.000228888 -0.00023128 -0.000268518
0.000235755 -0.000116204 0.000201068
3.244e-05 -0.0023522 -0.0041389
0.000947346 -0.00082117 -0.00113706
-0.00101345 0.00275791 0.001446
-0.000779563 0.000875282 0.000707136
0.000172192 0.000284618 -8.82687e-05
-0.00164579 0.00213913 0.0012868
-0.000781754 -0.000132432 0.000664613
1.40548e-06 2.62505e-07 1.25143e-06
-3.49591e-05 7.00169e-05 1.29051e-05
0.000234267 -0.000216868 0.000396351
-0.00195617 0.00336217 0.0059774
9.17508e-05 0.000132537 5.68982e-05
-0.000484044 0.000588146 0.000297125
-0.000269109 0.000136299 0.000353556
-0.000167983 -0.000128438 0.000162792
7.55893e-05 -5.34437e-05 0.000185679
-0.00248695 0.00255607 -0.00200839
-0.000112278 -0.000884531 0.00168442
7.08642e-05 -9.77905e-05 -0.000111323
-0.000554785 -0.000102884 0.000467228
-3.39038e-05 -2.14631e-05 -5.17631e-05
-0.000161899 -0.000283957 0.000175407
-6.49991e-05 -3.17655e-05 -3.36169e-05
0.000220352 0.000167309 0.000111187
-0.000166124 0.00033753 0.000237329
2.19112e-05 2.29205e-06 -1.01555e-05
6.05797e-06 -3.17918e-06 1.87455e-05
-0.0015775 -0.000489064 0.000237739
0.000114494 -4.69868e-05 -8.43965e-06
-0.000901778 3.40954e-05 0.00118887
-4.25773e-07 2.26927e-06 -8.95085e-07
0.00024493 -0.000231795 -0.000230717
-2.53866e-05 -3.34397e-05 -8.38794e-05
0.00204048 -0.00193047 0.000586132
-2.35613e-06 0.000536976 0.000215366
2.82745e-05 -1.36085e-05 -7.14193e-08
1.74345e-06 1.43744e-05 -5.42197e-06
-0.00102415 -0.0001913 -0.000735834
9.08839e-05 -5.04713e-05 -0.000963865
-4.66961e-06 -1.78804e-05 -5.16347e-05
-0.000445109 0.00111592 0.00365621
6.32931e-05 6.16261e-05 1.2042e-05
0.000117442 9.51779e-05 4.89845e-05
0.00218009 0.0029162 0.000536648
1.38447e-05 1.94053e-05 1.80244e-05
0.000332265 0.000797067 0.000124291
0.000954094 -0.00110292 0.00188078
0.000116801 4.62775e-06 0.000116797
0.000192646 -0.000237583 -0.000324845
0.000531557 0.000217547 0.000402179
0.000195126 -3.46035e-05 -1.98859e-06
-4.65267e-05 -0.000124419 -7.75906e-05
0.00016131 8.50011e-05 8.46894e-05
-0.000105858 -0.000246315 -0.000206602
-1.07589e-06 7.40314e-06 -8.59381e-06
-0.00164343 0.00192155 -0.000457608
-0.00120445 -0.000412206 -0.000273549
0.000286721 -9.68819e-05 -5.11689e-05
0.000133178 -0.000115666 0.000218048
9.97648e-05 8.33578e-05 -4.41438e-05
0.000202927 -0.000263387 -8.83285e-05
0.0010268 -0.000596554 -0.00351584
-3.82298e-05 -0.000280478 7.01417e-05
-0.000384007 0.00105562 0.00120718
0.000504426 -0.000356415 0.000308284
0.0014452 -0.000114992 0.00151009
2.44382e-05 4.28369e-05 -6.44184e-05
0.000304245 -8.49314e-05 0.000339726
1.50632e-05 9.67571e-05 -4.69711e-06
0.000576453 -0.00181568 0.00297452
-2.88658e-05 4.03689e-05 -3.59542e-06
1.76903e-05 -1.11779e-05 8.47437e-06
-0.00069638 -0.0006392 -0.000138153
0.00175856 -0.000139265 0.0014484
-0.00117882 0.00139648 0.00117081
2.94533e-05 -2.2871e-05 3.71709e-05
0.000786179 -0.00106528 -6.65388e-05
-0.000426967 0.000983645 0.000471409
0.000357065 -1.53175e-05 0.00028632
0.00145589 -0.000157707 0.00113271
-0.00233563 -0.000703885 -0.00302487
1.63578e-05 1.08554e-05 -4.37208e-05
-9.49483e-05 -5.65582e-06 5.46042e-06
-1.95726e-07 -1.48448e-05 0.000142269
-0.00046123 3.97052e-05 -0.000166412
0.000348029 -5.88282e-05 -8.20205e-05
-0.00104546 -0.000478071 0.00167984
0.00212649 0.00146784 1.15392e-05
-0.000724213 -0.000956812 6.8552e-05
3.04842e-05 5.27947e-06 1.41802e-05
-6.68714e-05 5.46678e-05 6.99532e-05
1.01814e-05 -0.000129295 -9.49642e-05
0.000132406 -0.000913863 0.00110586
-0.000546705 0.000459169 0.000353957
-0.000133689 -0.000109947 7.48564e-06
-0.000276036 0.000267288 0.000424502
0.000105582 -9.11167e-05 0.000171662
-0.000220796 -0.000285254 0.000695901
0.000773183 -2.87067e-05 0.000802288
7.7476e-06 1.38531e-05 1.03965e-05
1.76586e-05 2.7713e-06 2.25637e-05
-0.000846704 -0.000987494 -0.000865782
-6.82887e-06 5.71585e-05 4.37778e-05
-7.96179e-06 -7.17236e-05 -1.97571e-05
7.93147e-05 3.1113e-05 7.62856e-05
-0.000513527 8.02322e-06 -0.000560075
2.59822e-07 -2.47041e-06 -4.17732e-07
-2.21707e-05 9.81363e-06 1.89092e-05
0.000157775 2.14982e-07 -0.000279493
-5.53808e-05 -5.6544e-05 1.81456e-05
-0.000879647 0.00172934 -0.00324049
-4.84611e-05 0.000111824 0.000124305
-0.000134831 -7.94154e-05 -7.17519e-05
5.33926e-05 0.000297969 -0.00186895
-0.00233377 0.00364949 -0.0032269
-0.00118639 -0.000285288 -0.000864645
0.000109451 0.000113521 -0.000199983
-8.47991e-06 -1.35507e-05 -6.10596e-06
0.00201976 0.000295621 0.00197387
0.000228995 -0.000163339 0.000185491
-0.000256097 0.000462876 -0.000845707
0.00158954 -0.00363301 0.00469376
0.00017559 -1.79678e-05 0.000173945
-0.000123255 4.65314e-05 0.00010234
2.32101e-05 -1.04079e-05 4.8304e-05
-0.00109096 0.00135398 -3.26483e-06
-5.72599e-05 -8.16449e-05 -3.89067e-05
0.000103854 -2.44956e-05 -4.16702e-05
5.74888e-05 5.06229e-05 7.33168e-05
-0.000143445 4.25306e-05 -6.6621e-05
-0.00368164 -0.0013014 -0.00344319
-0.00117715 0.00129229 -0.00150485
2.40376e-05 7.4936e-06 -5.77925e-06
0.000724872 -0.000824977 -0.00290907
0.000414068 -9.56049e-05 -0.000684015
-0.000417497 -0.000943153 -0.000981521
0.000276686 -0.000209459 -0.000331171
0.000606239 0.00103615 -0.00275176
-9.197e-05 0.000124741 -1.4525e-05
-7.51827e-05 -8.31672e-05 0.000469434
-0.000935292 -0.00317217 -0.0029423
-1.3212e-05 5.09751e-05 -6.74431e-05
-0.000417689 0.000498147 -0.000101696
-6.00781e-05 0.000129307 -0.000225737
-8.15857e-05 0.000111989 -3.67268e-05
0.000385201 0.00406249 0.00382119
3.6932e-05 3.89591e-05 -3.08896e-05
4.72986e-05 -0.000654276 0.0011674
0.000232527 -0.000171624 -0.000233254
-9.34556e-07 -1.4493e-06 -2.44878e-07
0.00293381 -0.00466093 0.00418795
8.9369e-06 1.40752e-05 -3.25893e-06
-3.78513e-05 1.67369e-05 -2.83318e-05
-4.79503e-06 -3.97549e-06 -2.93898e-08
-0.000140319 0.000444783 0.000442238
-0.000190837 0.000344637 5.79529e-05
5.41682e-06 -3.03908e-05 -9.63684e-06
-2.56523e-05 -2.13365e-05 6.50912e-06
-6.03099e-05 -0.00046247 1.68726e-05
0.000211103 -3.48984e-05 8.80003e-05
0.000537758 -0.000413579 -0.000895683
0.00130712 -0.000135022 -0.000813277
-4.42152e-07 1.36924e-05 7.72905e-06
5.6745e-05 -0.000350196 0.000357254
0.000848366 -1.04646e-07 0.000600106
-0.00110175 -0.00169471 -0.00163153
-5.65519e-05 1.56958e-05 -7.93349e-05
0.000101201 -0.000183051 -0.000100646
0.000720685 -0.000779197 0.00091353
0.00568874 0.00261942 0.00629376
8.81651e-06 -0.000100537 -3.15406e-05
0.00167315 -0.00111638 -0.00251736
-0.00147669 5.61651e-05 -0.000791537
-2.72457e-06 5.25781e-07 -2.32e-06
-1.79664e-05 -0.000249503 -0.000433796
7.56232e-05 0.000145266 4.3878e-05
-8.27659e-06 -7.36037e-06 8.97218e-06
7.60473e-05 -2.05151e-06 0.000204344
-1.2253e-05 7.46736e-05 4.79747e-05
-4.81839e-05 -0.000112708 4.57985e-05
0.000410244 -0.000711102 -0.000312594
-0.000934435 0.000116693 -0.000516821
0.000213471 -6.63205e-05 -5.6231e-05
-0.000192986 -0.000314099 -0.000874926
0.00162176 -0.00157841 -0.000342894
-7.26871e-05 6.15858e-05 4.13448e-06
5.11278e-05 6.71207e-05 -2.2692e-05
2.75871e-05 -3.36846e-05 -4.55193e-05
-5.62573e-06 3.62076e-06 2.18016e-06
-0.000490331 -0.000279481 -0.00110595
-0.00101555 3.48608e-05 0.00117582
-0.0029553 0.00135285 0.00228395
-0.000245102 0.000163691 6.57506e-05
-1.38016e-05 -0.000219401 1.40466e-05
-8.27322e-05 -4.3214e-05 1.38577e-05
0.00104989 -0.00337846 0.00191616
0.00308083 0.00363897 -0.00296537
0.000329008 0.000461968 7.51636e-05
2.86716e-05 4.52034e-05 -1.86025e-05
7.71731e-07 2.42971e-05 2.50331e-05
7.4689e-05 -2.64697e-05 5.42144e-05
0.000401622 -0.000265268 3.04157e-05
-0.00205917 -0.00174625 0.0022686
-0.000119352 -8.97285e-05 -2.52487e-05
3.2985e-05 -0.000192861 0.000370542
0.00113333 0.000365492 -5.11898e-05
-0.000684965 -3.70375e-05 0.00101662
-1.12257e-05 5.25597e-05 -2.82324e-05
7.7762e-05 7.58821e-06 0.000185845
1.07491e-05 7.30754e-06 1.40143e-05
1.63743e-05 0.000257151 -0.0016438
5.1865e-05 0.00157642 0.0032961
1.19267e-05 2.21044e-05 -5.0326e-05
0.00134583 0.00422848 -0.00149069
-0.000758541 0.000279808 0.000264473
-0.000716467 -0.000175965 -0.000277265
0.00242776 0.00301251 -4.57238e-06
2.35099e-05 9.64137e-06 2.79274e-05
0.00033826 0.000931976 -0.00100279
-4.46719e-06 -1.12951e-05 1.44708e-05
-0.000166534 0.000140298 -0.000116946
6.48681e-05 -0.00043105 -8.57149e-05
-0.000176312 2.52823e-05 -0.000206333
0.000298639 0.000516335 0.000855275
9.64844e-05 -6.15716e-05 -9.53435e-05
2.06749e-05 -2.49113e-05 1.11926e-05
-0.000100959 -0.00384566 -0.000827918
1.93618e-05 -0.000488751 -0.000152774
-0.00017898 -1.3708e-06 -5.85194e-05
0.00355593 0.00583464 -0.00412346
-2.28556e-05 -3.57428e-05 2.87021e-05
-1.30768e-05 -4.41531e-06 3.30749e-06
3.43172e-05 2.20455e-05 2.31394e-05
2.72427e-05 6.32495e-05 -5.25407e-05
-3.6324e-05 8.54431e-05 -1.93055e-05
0.00314945 0.00330741 0.00634494
-6.96252e-05 2.3658e-05 2.19473e-05
-0.00011215 0.000148162 1.66614e-05
-6.76692e-06 1.92611e-05 5.39976e-05
-0.000517644 0.00119176 0.000180189
-0.00188573 -0.000122263 -0.0034207
9.4189e-07 -5.40588e-06 1.10443e-07
-0.00138893 -0.00145346 1.39303e-06
-3.88262e-06 7.56759e-06 1.0845e-05
1.20769e-07 -6.48722e-07 -4.79406e-07
-9.70641e-05 -0.00019133 0.000195754
-0.000947599 0.00123899 0.00170242
0.00019462 -8.2916e-05 0.000219925
0.00203918 1.15742e-05 0.00145431
-2.98581e-06 -1.95314e-06 -3.02013e-06
-0.000414508 -3.50231e-05 0.000142331
0.000421934 -0.000384387 -0.000442382
2.53169e-05 -0.000538425 5.91798e-06
0.000925837 0.000389636 0.000353839
-4.9128e-06 7.12846e-05 0.000118149
0.00127146 0.000928404 0.000856105
-0.000233451 -0.000529644 0.000217813
-3.1632e-05 -2.70361e-05 -5.00815e-05
0.000556269 0.00135992 -0.00111392
-8.69799e-05 0.000272597 0.000153567
8.99838e-06 -1.65568e-06 -4.59742e-05
0.00114045 0.000841006 -0.000201662
-0.00102148 0.000340991 -0.0011534
-0.000581574 0.00473187 0.000780422
-0.00048713 0.000504968 0.000930332
0.000338814 0.000495779 -0.000438381
-6.16343e-05 -0.000179786 0.000110822
0.00137322 0.000197912 -0.00205484
5.89634e-05 -4.86626e-06 5.10616e-05
0.00026866 0.00020037 0.00130071
2.6553e-05 -4.39106e-07 3.6572e-05
-0.00185737 0.00075161 0.000882268
0.00068471 0.00138382 0.000356888
0.000935377 -0.00138747 -0.00456415
-0.000113365 -0.000234637 -0.00111013
-6.54065e-07 6.11399e-07 -5.84139e-07
0.000492118 0.000925362 -0.00390763
-1.20183e-06 -1.79859e-05 -1.57324e-06
4.88007e-05 6.09102e-05 0.00011439
5.86377e-05 -0.000240755 -0.000804237
-4.57042e-05 -3.25388e-05 -2.18524e-05
-2.98818e-06 1.31679e-07 -2.45363e-06
4.91466e-05 -0.000115201 0.000261297
7.63428e-05 -0.000128586 -0.000118665
-0.000295786 0.000916228 -0.00148588
-0.000775783 6.68207e-05 0.000635244
-0.0032173 0.00177532 0.00114498
-5.62188e-06 -1.32713e-05 -1.56755e-06
1.10074e-05 3.03818e-05 -1.47717e-06
-5.58297e-05 0.00103114 -0.000618237
0.000156027 3.4636e-06 2.14957e-05
-4.13898e-05 -5.84948e-05 2.02126e-05
9.50182e-07 7.48921e-07 -8.36232e-07
1.2451e-05 2.30187e-05 1.61643e-06
2.51134e-05 3.24285e-06 3.85311e-06
0.000776276 0.000257045 0.000242314
-0.00107154 0.00191437 -0.00160407
0.00060419 0.000834966 -0.00142072
-0.000703548 0.000448803 0.000577123
-0.000206377 -2.99765e-05 -8.18025e-05
8.55035e-05 -1.92057e-05 -1.20886e-05
0.000252973 0.000285452 0.000244308
0.000278158 0.000340423 0.000352316
0.00161563 -0.00160786 0.00134852
-0.000196734 -0.00014877 -3.93922e-05
0.00304433 0.000653731 0.00237128
0.000798721 -0.00024909 0.000102677
0.00162771 -0.00039716 -0.00369484
-2.67358e-05 -1.6109e-05 -1.16906e-06
-8.09512e-05 -0.000321263 -0.000136751
0.000249281 -0.000637721 -0.00038055
-2.10048e-06 -2.34967e-06 7.05385e-05
-9.67511e-09 -0.00019821 0.000930926
-3.96889e-05 -0.000280084 1.90725e-05
-4.13193e-05 -0.000187023 -0.000366193
-8.25281e-05 2.34843e-05 -0.000105146
-1.64021e-06 6.55131e-05 -7.15405e-05
7.39276e-05 -8.01536e-06 -2.86272e-05
0.002635 -0.00205081 0.00193875
-4.949e-05 5.72779e-07 -4.20113e-05
-0.000149623 7.86298e-06 0.000104503
0.00731482 -0.000115087 0.00544735
-1.42117e-05 0.000521693 -0.000277928
-0.000784881 -0.000676506 0.000319186
0.00281836 -0.00265952 0.00287338
0.000171427 -4.68299e-05 -0.00026079
0.000136764 -1.63712e-05 1.64349e-06
0.00042833 0.000235074 0.000340016
2.16033e-05 2.15348e-05 -8.12415e-06
0.00165797 -0.00144312 -0.00148993
-0.00154182 0.00142273 0.0061124
0.000701164 0.00030034 -0.00152068
2.21808e-05 -3.73088e-07 2.12949e-06
0.000129876 -0.000244162 8.58545e-05
-1.78936e-05 8.43718e-05 0.000185752
0.00159347 0.00131551 -0.00137369
9.04596e-05 3.46854e-05 5.25027e-05
0.000718604 0.000466518 0.00062401
-0.0001578 1.54508e-05 0.000139781
-0.00386619 0.00343996 -0.0068474
-0.00265587 0.00166716 -0.00285817
0.000266066 -5.1263e-05 -9.44799e-05
-1.76373e-05 6.38207e-06 -1.67539e-05
-5.18665e-06 -8.02145e-06 -2.64526e-05
0.00113334 -0.000304422 -0.000332853
-1.44767e-06 1.85678e-05 1.61593e-05
1.32239e-05 7.59641e-05 -1.58657e-06
4.66102e-06 -4.03802e-06 -1.55293e-05
-0.00366985 -0.00207268 -0.00103871
0.000662755 0.000231794 -0.00215932
-1.90618e-05 -8.56015e-06 -1.06784e-05
-0.000150137 -0.00065929 -0.000853593
2.40151e-05 7.95161e-06 -3.17132e-05
-6.2384e-05 2.71951e-06 3.41771e-05
-6.27385e-06 0.00243447 0.000614293
7.45588e-05 -0.000183237 7.76359e-05
2.61773e-06 -1.29373e-05 1.3343e-05
-6.61837e-06 -1.04715e-05 -9.56876e-06
-0.00010951 3.51208e-05 8.14723e-06
-0.000231772 2.73026e-05 6.82618e-05
0.00161303 0.000819834 -0.00102413
-0.00416113 -0.00140935 0.00448693
1.9421e-05 1.35482e-05 -5.4846e-06
-5.00601e-05 -7.76363e-05 -1.13186e-05
-0.000544924 0.00127448 -0.000401986
-8.22483e-05 -2.30802e-05 4.2603e-05
-7.83707e-06 -2.80481e-05 -2.90443e-05
-4.27695e-05 -4.85388e-05 4.23487e-05
-1.65313e-05 4.8309e-05 3.5885e-05
3.66136e-05 -3.44091e-05 -0.000109927
0.000650979 -0.000157758 7.02802e-05
-7.21712e-05 1.17178e-05 4.7016e-05
-0.00307751 -0.00143194 0.00168137
-2.37213e-06 1.61914e-05 -5.67553e-06
6.45617e-05 0.000666756 5.41344e-05
-0.000196924 -0.000175728 -0.000137191
-6.60346e-05 0.000164762 0.000192409
5.03912e-05 0.00010131 0.000175736
0.000693999 0.00257975 0.00103018
-1.23911e-05 4.31588e-06 -4.18014e-06
-0.00143826 0.00120457 0.00153518
-1.00659e-05 1.0223e-05 -1.58271e-05
0.000733428 -0.000534707 -0.000378843
-0.00258635 -0.00324936 0.000247885
-9.80156e-05 -0.000175198 0.00281785
-5.93493e-07 5.03707e-06 -2.47018e-06
-3.33189e-06 -5.16273e-06 -4.0741e-06
-0.000509318 -0.000162441 0.000259079
-1.65982e-06 -1.25857e-06 -3.51244e-07
-0.000133605 -5.08973e-05 7.97426e-05
-1.43512e-05 4.76499e-05 1.09042e-05
-0.00252175 -0.00508326 0.00136179
0.000170551 5.32875e-05 0.000111174
-3.18739e-05 -0.000135756 0.000133081
-0.00291486 -0.000298383 -5.96477e-05
0.000640388 0.000729271 0.0059371
2.19086e-05 9.72451e-05 -8.61913e-06
-8.88454e-07 2.96491e-05 1.53021e-05
-0.000166259 4.44082e-05 -5.65597e-05
-0.001003 -0.0010669 -0.000385458
-0.00450416 -0.00024279 -0.00182956
-1.73982e-05 4.69796e-06 -1.13771e-05
0.00125951 -0.000961765 -0.000832913
8.35111e-05 -5.22295e-05 2.40902e-05
0.00229198 -0.00276717 -0.000353714
0.000561935 -0.000706297 -0.0021867
-0.0001544 3.3238e-05 2.30628e-05
-0.00101768 -0.0019639 0.00246121
1.17875e-05 3.55737e-05 3.84272e-05
-0.00014882 -4.7737e-05 0.000111572
0.00217153 -0.00156627 -0.00581345
-0.000110455 4.83541e-05 1.19902e-05
-9.88863e-06 1.94121e-05 1.19236e-05
-0.000186659 -0.000811807 0.000233696
-0.000204671 0.000560272 -0.000648137
-0.000721362 -0.000613579 -0.000608872
-2.98834e-07 4.35683e-08 -2.20306e-07
-1.61923e-06 4.57103e-06 4.13405e-06
1.73758e-05 1.96269e-06 -3.96013e-05
-6.30807e-05 0 -0.000465454
-0.000233879 0 -6.47432e-05
0.00014075 0 -4.48473e-05
-0.000718565 0 -0.000680597
0.00149391 0.00170424 0
0.00223855 0.00241325 0
0.00113169 -0.000645668 0
-6.14222e-05 1.51873e-05 0
0.000473597 -0.0001165 0
0.000610852 0.00266113 0
5.47706e-06 1.33234e-05 0
-6.16614e-05 2.79647e-05 0
-0.000182358 0.000249317 0
-1.97294e-06 -8.61723e-06 0
2.94987e-05 2.69906e-05 0
1.16669e-06 1.44075e-05 0
-2.4211e-05 9.78839e-06 0
-0.000729392 0.000612799 0
-3.33937e-05 -6.57836e-05 0
4.80769e-05 -5.58892e-05 0
-0.00109268 0.00189336 0
9.02677e-06 -3.65916e-05 0
-2.00012e-06 1.11235e-05 0
5.99983e-06 -6.2457e-06 0
8.09857e-06 1.19406e-06 0
1.25642e-05 -4.48505e-05 0
-0.00135332 -0.000273756 0
9.12484e-06 -3.08883e-06 0
1.86396e-05 -1.0325e-05 0
9.62666e-10 8.11413e-10 0
-2.14924e-05 -5.80902e-06 0
-1.77241e-06 -0.000291097 0
0.00302327 -0.00201003 0
0.00107691 -0.00196231 0
-5.26772e-06 1.48845e-05 0
-2.47246e-05 -1.74482e-05 0
-3.17121e-06 -7.59764e-06 0
1.26106e-06 1.46214e-05 0
-1.0591e-05 8.55851e-06 0
-5.78897e-06 9.97551e-06 0
-6.53918e-09 -4.54104e-08 0
-1.03111e-06 1.4647e-05 0
0.000801122 0.000267651 0
-0.000237421 -0.000278277 0
-0.000861555 -0.00109118 0
-0.000495066 -8.55858e-05 0
7.84181e-06 1.23569e-05 0
-6.03701e-08 -0.00111035 0
-0.00130687 0.00013819 0
1.3182e-05 -6.45092e-06 0
1.20433e-05 -8.6321e-06 0
6.65148e-06 8.88762e-07 0
-0.000412882 -0.00060112 0
4.96514e-05 4.07519e-05 0
4.18675e-06 -1.13457e-06 0
-3.89403e-10 1.19899e-09 0
1.41632e-05 3.84475e-06 0
4.69799e-06 -8.43256e-07 0
-9.27079e-05 -0.000188956 0
-5.37359e-06 1.36571e-05 0
-3.94247e-05 0.000102968 0
-3.60977e-06 1.54522e-05 0
-0.000289306 0.000292193 0
-4.3186e-06 1.25082e-05 0
6.25812e-05 -0.000287692 0
0.0112596 0.00266047 0
-2.03556e-07 1.46644e-05 0
7.68919e-07 6.06232e-05 0
3.51601e-05 0.000201539 0
-6.0414e-06 1.34761e-05 0
-3.34022e-05 1.68643e-05 0
5.89655e-07 1.46644e-05 0
-5.47405e-07 3.54928e-06 0
-4.65445e-06 1.32788e-05 0
1.34774e-05 -5.80891e-06 0
1.42138e-05 -3.2562e-06 0
1.05644e-05 9.82348e-06 0
1.27953e-05 7.78707e-06 0
9.47464e-06 1.12083e-05 0
-0.00022136 0.000188578 0
1.28157e-06 -1.46652e-05 0
0.000808034 -0.000516954 0
0.000911767 -0.00018918 0
-6.70195e-07 -1.65411e-05 0
-1.11406e-05 9.42845e-06 0
-3.97374e-05 -3.94966e-05 0
-1.49627e-05 5.44809e-06 0
0.000656755 -0.00136547 0
2.3533e-05 -0.000249948 0
-8.83171e-07 -0.000539839 0
2.19093e-05 -0.000217115 0
-3.96881e-06 3.97009e-05 0
2.86568e-07 2.20927e-07 0
-2.56585e-05 0.000233815 0
0.000232861 0.000168423 0
0.000158634 -0.000263942 0
0.000166906 9.66734e-05 0
0.000186703 0.000192617 0
-6.8239e-07 8.82017e-06 0
2.04721e-05 -1.13425e-05 0
1.20329e-05 -2.53414e-06 0
-0.00138579 7.78851e-05 0
1.32609e-08 -6.14674e-08 0
4.40878e-05 7.23313e-05 0
-0.000454257 0.000269356 0
0.000226407 -0.0001914 0
-0.000335676 -8.03571e-05 0
-9.4236e-06 1.12514e-05 0
2.21293e-07 -5.05369e-06 0
-0.000593496 0.000166977 0
0.000248657 0.000179343 0
4.11435e-06 0.000349953 0
-5.76583e-07 0.000238764 0
0.000142508 0.000156544 0
0.000507503 0.000240423 0
1.48932e-05 -0.000101905 0
-0.000135862 6.44657e-06 0
6.45409e-06 2.05117e-05 0
0.000186953 -0.000838978 0
1.92737e-10 -1.24582e-09 0
0.000350709 -0.000427564 0
-1.41748e-05 3.80278e-06 0
2.29341e-05 -0.000452034 0
-0.000268597 -5.86727e-05 0
-0.000166404 0.000567866 0
-3.89548e-06 5.87465e-05 0
0.00423745 -0.00482929 0
0.000499667 -0.000401979 0
2.3611e-05 -6.64018e-05 0
-1.07128e-05 1.04266e-05 0
0.000242116 8.6666e-05 0
-5.93297e-05 -0.000126411 0
8.63728e-06 0.00046765 0
8.15077e-05 -7.00899e-06 0
-0.00220581 0.00151218 0
-0.00300286 -0.000587191 0
1.49689e-05 -2.83157e-06 0
-0.000667437 0.00025137 0
5.01026e-05 0.000237737 0
-0.000449241 -0.000280493 0
0.000155832 -0.000258052 0
5.54088e-05 8.58005e-05 0
-0.000287333 0.000254118 0
0.00286856 -0.00166215 0
2.62762e-06 1.51328e-06 0
-2.01425e-07 -3.62098e-06 0
-0.000174187 0.000292172 0
-3.03983e-05 0.000174522 0
0.000144071 -3.02139e-05 0
1.88446e-05 1.88782e-05 0
-0.000191263 -0.000202791 0
2.31191e-05 1.56779e-05 0
-0.000226294 -0.000210878 0
-0.00145615 0.000666149 0
-2.07154e-05 7.34434e-06 0
-4.30774e-05 -1.67918e-05 0
1.04757e-07 7.31979e-07 0
3.81194e-06 -1.42079e-05 0
-0.000187847 2.41586e-05 0
0.000267184 0.000226487 0
3.30516e-05 2.19229e-05 0
0.000151785 0.000627914 0
-4.61402e-05 -6.657e-05 0
0.000325151 -0.00221667 0
1.31452e-05 5.56993e-06 0
-0.000609259 -0.000991428 0
0.00462981 0.00353404 0
1.21194e-05 -3.34435e-06 0
0.00133429 -0.00112179 0
-0.00194175 0.000160108 0
0.000786912 0.000368135 0
-0.00270411 0.000746654 0
1.45035e-05 -2.06338e-06 0
-0.00120385 0.000557743 0
1.51459e-09 4.08939e-10 0
-0.000139979 -0.00101725 0
-4.36017e-08 -7.71225e-08 0
0.00170298 0.000323152 0
1.1778e-05 8.75557e-06 0
    <DataArray type="Float64" Name="norm"/>
0.000405453
0.00021869
0.000233198
0.000311432
2.11989e-05
0.000224316
0.00022771
0.000102576
0.000117122
0.000642084
0.000136093
0.000155361
0.000368008
0.000103248
0.00115766
0.000186427
0.000394614
0.000409375
4.77802e-05
5.18465e-05
0.000500845
0.00105636
0.000104767
3.05301e-05
6.24543e-05
0.000226827
0.000187139
0.000183839
0.000166929
0.00261656
7.41908e-05
4.89274e-05
1.37888e-05
5.9292e-05
0.000647234
0.00124624
6.60931e-05
9.73631e-05
0.000170825
6.06851e-05
0.000329266
6.65606e-05
0.00017061
0.000334238
0.000434843
0.000641255
0.000839568
0.000413234
8.41454e-05
0.000968823
0.000537672
0.0001464
0.000607401
0.000322045
0.00142551
0.00179022
0.00169221
2.48487e-05
0.000554999
7.30731e-05
0.00013724
0.00018787
0.000102582
0.000170111
0.000173019
0.000936698
0.000114375
0.00475274
0.00023209
0.00015623
3.97333e-05
4.00969e-07
9.26079e-05
4.50741e-05
1.39775e-05
0.00336677
0.000120884
0.00346802
0.00327934
0.00029027
0.000687054
0.00247739
0.00190298
4.63013e-05
0.000169797
0.000160398
1.51463e-05
3.12068e-05
0.00181223
0.000306324
0.000625661
0.00111638
0.00276401
0.000628415
0.00310482
0.0027406
0.000630453
0.000128546
0.00219079
0.00112195
0.00300126
0.000227116
0.00289873
0.000456968
0.000422408
0.00102346
0.000343774
0.000125259
0.000872631
0.000102384
0.00100258
2.9469e-05
0.000147433
0.000539991
0.000402432
0.000119123
4.92135e-05
2.68072e-05
5.44348e-06
0.000393651
0.00196045
0.000526866
9.73153e-05
0.00330707
0.000103642
0.000421879
0.000330927
0.00476071
0.00169254
0.00327476
0.0013689
0.000344164
0.00299005
0.0010346
1.90009e-06
7.93161e-05
0.000508928
0.00713163
0.000170944
0.000817617
0.000464757
0.000266863
0.000207477
0.00409293
0.00190585
0.000164248
0.000732581
6.54947e-05
0.000370959
7.97749e-05
0.000298177
0.000444802
2.42588e-05
1.9955e-05
0.0016686
0.000124047
0.00149257
2.4763e-06
0.000408595
9.38e-05
0.00286946
0.00057856
3.1379e-05
1.54616e-05
0.00127551
0.000969455
5.48421e-05
0.00384854
8.91561e-05
0.000158905
0.00368035
2.98851e-05
0.000872447
0.00237993
0.000165244
0.000446187
0.000701161
0.000198181
0.000153835
0.000201043
0.000338469
1.13938e-05
0.00256956
0.00130209
0.000306942
0.000280464
0.000137296
0.000344026
0.00371098
0.000291632
0.00164897
0.000690302
0.00209337
8.11293e-05
0.000463888
9.80352e-05
0.00353225
4.97575e-05
2.25767e-05
0.000955305
0.0022825
0.00217038
5.26522e-05
0.00132564
0.00117136
0.00045794
0.00185135
0.00388593
4.79262e-05
9.52732e-05
0.000143041
0.000491938
0.00036237
0.00203553
0.00258392
0.00120195
3.40329e-05
0.000111148
0.000160745
0.0014407
0.000796874
0.000173255
0.000572574
0.000221173
0.000783836
0.00111459
1.89742e-05
2.87859e-05
0.00156257
7.23203e-05
7.48198e-05
0.000114361
0.000759907
2.51892e-06
3.07474e-05
0.000320951
8.12005e-05
0.00377692
0.000174083
0.000172147
0.00189331
0.00540168
0.0014955
0.000254676
1.71118e-05
0.00283954
0.000336935
0.000997527
0.00614465
0.000247813
0.000166825
5.45922e-05
0.00173882
0.000107044
0.000114552
0.000106033
0.000163779
0.00520612
0.00230657
2.58333e-05
0.00310945
0.000805276
0.00142381
0.00047969
0.00300222
0.000155659
0.000482636
0.00442658
8.55663e-05
0.000657995
0.000266996
0.000143341
0.0055905
6.19351e-05
0.00133908
0.000371391
1.74179e-06
0.00691885
1.69883e-05
5.01552e-05
6.22878e-06
0.000642725
0.000398186
3.2339e-05
3.39949e-05
0.000466691
0.000231358
0.0011236
0.00154539
1.57294e-05
0.000503475
0.00103916
0.00259765
9.86838e-05
0.000232119
0.00140038
0.00887888
0.000105737
0.00322224
0.00167639
3.61692e-06
0.000500753
0.000169548
1.4254e-05
0.000218045
8.95983e-05
0.000130852
0.000878454
0.00107419
0.000230499
0.000949419
0.0022889
9.53589e-05
8.73738e-05
6.29897e-05
7.03646e-06
0.00124163
0.00155406
0.00397246
0.000301982
0.000220283
9.43616e-05
0.00402342
0.00561489
0.00057211
5.66697e-05
3.48941e-05
9.60119e-05
0.000482278
0.00352649
0.000151438
0.000419028
0.00119191
0.00122641
6.07092e-05
0.000201601
1.9114e-05
0.00166387
0.00365405
5.62455e-05
0.00468118
0.000850661
0.00078814
0.00386901
3.77573e-05
0.00141017
1.88928e-05
0.000247171
0.000444251
0.000272577
0.00104273
0.000148965
3.42535e-05
0.00393507
0.000512437
0.000188309
0.00798064
5.12224e-05
1.41929e-05
4.68947e-05
8.6621e-05
9.48297e-05
0.00781769
7.67402e-05
0.000186567
5.77281e-05
0.00131176
0.00390796
5.48843e-06
0.00201039
1.37825e-05
8.15632e-07
0.000290428
0.00230895
0.000305154
0.00250467
4.67451e-06
0.000439661
0.000722138
0.000539053
0.00106499
0.000138076
0.00179206
0.000618437
6.51129e-05
0.00184381
0.000324742
4.68758e-05
0.00143129
0.00157798
0.00483093
0.00116525
0.000743485
0.000220007
0.00247937
7.81515e-05
0.00134319
4.51969e-05
0.00218932
0.00158466
0.00486122
0.0011403
1.06903e-06
0.00404574
1.80945e-05
0.00013848
0.000841545
6.02094e-05
3.8687e-06
0.000289764
0.000190903
0.00177053
0.00100491
0.00384886
1.44979e-05
3.23481e-05
0.00120358
0.000157539
7.44534e-05
1.47072e-06