<?xml version="1.0"?>
<VTKFile type="UnstructuredGrid" version="0.1" byte_order="LittleEndian" compressor="vtkZLibDataCompressor">
 <UnstructuredGrid GhostLevel="0">
  <Piece NumberOfPoints="751" NumberOfCells="751">
   <PointData>
    <DataArray type="Float64" Name="Elongation" NumberOfComponents="3"/>
-5.95344e-05 0.000228374 0.000169424
-0.000145364 -0.00018062 0.000219882
0.000358596 0.000679206 0.000295479
9.02137e-05 -0.00138919 0.00105653
1.12559e-05 -1.87412e-05 -1.84999e-05
0.00122695 -0.00159518 0.00035443
-6.71696e-06 -0.000174054 -0.000129652
0.000203039 -0.000258038 -0.000225777
0.00042623 5.39693e-05 -0.000241691
-2.6198e-05 5.20646e-05 3.36404e-05
-0.000223881 -0.000558718 -0.000235134
-1.40235e-05 9.91433e-05 -8.2433e-05
-9.15856e-06 2.04355e-05 1.64859e-05
-0.000190258 0.000121417 0.000156515
-0.00127423 0.000311225 -0.00024374
0.000596778 -0.000257885 -0.000206458
-0.000107036 -3.00266e-05 6.8757e-05
2.16952e-05 5.05744e-05 -1.8928e-05
-2.04092e-05 -1.08883e-05 2.6127e-05
-0.000599455 -0.00129777 -0.000689222
6.20032e-05 -0.00110809 0.000779052
0.000318503 7.32503e-05 0.000301772
-0.000224474 -4.93666e-05 -7.09375e-05
-0.000444488 -0.00018872 -0.000347986
-0.00165953 -0.000698741 -0.0010318
-3.83882e-05 -7.40098e-05 0.00160766
0.000264423 -0.000101489 6.06096e-05
3.20045e-05 0.000131764 -4.29606e-05
0.00189127 -0.000381959 0.0012915
-0.000393553 0.000112351 0.000433447
-1.22179e-05 0.000305714 -0.000139358
-1.92089e-06 0.000242046 -0.000144479
-3.33382e-05 -0.000838278 0.000552968
0.000319153 0.000168932 0.000322989
1.45563e-06 2.00183e-05 9.24371e-07
-7.24806e-05 -0.000187244 -4.13816e-05
-4.01129e-05 -1.14775e-05 2.03661e-05
2.21655e-06 1.82101e-06 -4.17464e-06
2.36699e-07 5.3327e-06 1.03475e-05
4.29136e-05 -3.0272e-05 -9.93846e-06
0.000279049 0.000139125 0.000165274
3.76408e-05 0.000175034 0.000120164
6.07196e-05 -0.000644657 -0.000216564
0.000578807 0.000214251 0.000276986
-0.000187019 -0.00150006 -0.000177283
3.65578e-06 -6.77653e-05 -2.81399e-06
0.000117027 -0.000154946 6.7759e-05
-8.62447e-06 9.77672e-06 2.04013e-05
-0.000424756 0.000446672 -0.000184691
-0.000130447 9.16179e-05 -8.39107e-05
-5.37694e-05 3.33171e-05 3.5416e-05
-0.000253777 -0.000179812 -6.94284e-05
-0.000461802 0.000497657 0.000189301
-9.63027e-06 -5.08418e-06 2.38911e-06
6.11987e-05 1.41528e-05 6.23325e-05
-9.41038e-05 3.92393e-05 0.000106078
0.00035138 -4.26284e-05 0.000346427
4.93372e-06 2.04539e-05 -1.20572e-05
1.16327e-06 6.49066e-06 -3.88035e-06
-4.62144e-05 -0.000276726 0.000174911
2.21367e-05 -3.85772e-05 2.17674e-05
-0.000939967 -0.00012729 0.000916404
1.76678e-05 -2.16522e-05 2.95439e-05
0.000341941 -0.000178686 -0.000264285
3.84777e-06 4.89883e-05 -3.55677e-05
-0.000126352 0.000270606 0.000331611
0.000515908 0.000319945 0.00199205
-0.000249638 -7.52911e-06 8.25612e-05
7.59641e-06 -4.68772e-06 1.0258e-05
-0.000257995 0.000126773 9.72262e-05
-5.98853e-05 0.00019865 -0.000202566
1.92012e-05 -7.59618e-05 -5.01197e-05
-7.87133e-05 0.000134422 8.90059e-05
-0.000219212 -8.20753e-06 -0.000243016
0.000330647 7.19603e-05 7.19989e-05
-4.33088e-06 3.50979e-05 -7.57706e-06
-0.00144501 0.00171554 -0.00141983
-0.00307153 0.00019417 -0.00508852
-0.000293612 0.00046199 -0.00170177
-0.000227313 0.00116064 -0.00103196
-0.00232674 -0.000144715 0.00661212
-9.42565e-05 0.00044531 -0.000362369
2.09841e-05 2.36042e-05 -4.48415e-05
-0.000115592 -0.000180508 -4.0249e-05
0.0007809 -0.000836232 -0.000114858
2.90635e-05 4.34467e-05 3.78292e-05
-6.06652e-06 3.11853e-05 -2.86257e-05
5.52913e-05 0.000698727 -0.000890801
0.000154905 0.000262697 0.000239466
3.3082e-05 -4.40139e-05 8.12059e-05
2.79575e-05 3.4276e-05 2.08593e-05
0.000135313 0.000129221 5.12226e-06
-0.000267665 -7.81401e-05 -0.000296712
9.52938e-05 -6.97613e-05 -0.000138303
-3.37301e-06 1.18976e-05 -1.18898e-05
-0.000690919 0.000487976 0.000144231
2.56373e-05 -3.51465e-05 -7.00848e-05
-0.000126606 2.32877e-05 -0.000135376
-0.000827928 -0.00081298 -0.000385245
1.69374e-05 -4.61157e-05 7.22089e-05
0.000480077 6.80562e-05 0.000343388
1.39876e-05 -5.73927e-06 1.66032e-05
-0.000378978 0.000255987 9.43279e-05
-0.000206706 -0.000263414 -7.90348e-05
0.000104709 4.07208e-05 0.000137288
-0.000808955 0.000570265 -0.00091943
9.6539e-05 0.000845742 -0.000661641
0.00164073 0.000812015 -0.000411535
3.67922e-05 0.000117169 7.51164e-05
1.44635e-05 0.000147379 0.000109335
-9.42453e-06 6.67043e-06 1.1913e-05
-0.000341649 -0.000938872 -0.00362163
-0.000284881 -5.90534e-05 -0.000153527
0.000466724 -0.00139502 -0.00103598
0.000180378 0.00017597 -4.74218e-07
5.43097e-05 -0.00120541 0.000952704
-0.000650639 8.45328e-05 -0.000372638
0.00180146 -0.000485237 -0.00167848
0.00117787 0.000307513 0.000420271
-9.20498e-05 5.74386e-05 -7.24952e-07
-0.000733583 0.00075031 -0.00133746
2.15469e-05 0.000893318 -0.0010288
-0.000163611 -0.000220527 0.000164615
2.36043e-06 2.89342e-05 1.75797e-05
-0.000566055 0.000332141 0.000711219
-0.00109645 -0.00111289 -0.000274092
-2.15171e-05 -2.05517e-05 1.1033e-06
-0.00256148 0.00137049 0.000170344
0.000180175 0.00125285 -0.00215203
-0.0003562 0.000699466 -0.001307
-0.000180115 -1.4159e-05 -5.02305e-05
-2.27408e-05 5.07828e-05 4.38987e-05
-1.63786e-06 -0.000174446 -0.000944666
-1.14168e-05 3.94964e-07 2.08217e-05
6.99973e-05 -5.64016e-05 0.000110504
8.47133e-05 -7.51869e-05 5.19572e-05
9.03376e-06 2.79164e-05 8.99276e-06
-6.04533e-06 2.5249e-06 5.64107e-06
-7.90053e-05 -3.64849e-05 -5.67422e-05
0.000573255 -0.000115419 -0.000120084
0.00033786 0.000262664 -0.000304611
1.297e-05 -0.000572711 -0.000398969
3.77076e-05 2.9114e-05 3.04289e-05
6.03661e-05 -3.30773e-05 -1.73746e-05
2.48953e-05 4.32775e-06 -6.96921e-06
-0.00151347 -0.000158739 -0.00236714
-6.64849e-06 8.22071e-06 4.33983e-06
1.84535e-05 -3.08164e-05 -3.60111e-06
0.000615951 0.00051422 0.000273432
0.000256551 -0.000355899 -0.000372328
0.000779299 -0.00352112 -0.00278156
-0.00146816 -0.000177673 -0.00122877
0.000372979 -2.78125e-05 -0.000127305
0.000117383 0.000232129 0.000164677
-0.000202978 0.000176643 -2.40299e-05
-2.91604e-05 3.08803e-05 5.45058e-05
-4.12704e-05 1.25023e-05 -4.24188e-06
0.000294854 0.000177177 1.5404e-05
0.000354861 -4.14305e-05 -0.00186841
-3.50953e-05 -0.00028376 0.000214916
0.000578768 -9.81889e-05 0.00103532
0.00100383 -0.000388323 0.00106647
0.000188429 6.62739e-05 -0.00021542
-7.79204e-05 -1.78571e-05 5.91902e-05
-5.24592e-05 9.57606e-05 -0.000114732
-8.72146e-05 0.000103144 -2.87324e-06
-2.21438e-06 7.40586e-05 6.09586e-05
0.00102014 -0.000950228 0.00172233
3.92872e-05 1.48391e-05 -1.83596e-05
-2.55357e-05 1.83123e-06 -2.81813e-05
-9.90003e-05 0.000326173 -5.51839e-06
0.000338595 -0.000726581 0.000356448
-0.00123776 0.000627016 0.000104159
6.21087e-05 8.10849e-05 -1.5197e-06
-2.1736e-05 2.88625e-05 -1.02188e-05
-0.00174366 -3.62958e-05 -0.00157003
0.000725641 6.04121e-06 0.000219795
-1.11948e-05 5.28311e-06 9.03744e-06
-0.00241971 -0.00070421 0.00239992
-0.00112598 -0.000164675 0.000712744
0.00019552 4.29976e-06 0.000165198
3.36308e-06 2.84134e-05 2.79601e-05
8.7568e-05 0.000238217 -0.000154437
0.00062733 -0.00109083 0.000713635
-4.8088e-06 0.000101184 5.90014e-07
-0.000129312 0.000229531 4.41968e-05
-0.00356573 0.00225495 0.000565799
-0.00107584 0.000548187 -0.000711033
-5.48092e-05 -4.49523e-06 5.64473e-05
-1.69296e-05 0.000643172 -0.000696759
-0.000727222 0.00182527 0.000689505
-3.5061e-05 -0.000699466 -0.000473434
-0.00140978 -0.000419006 -0.002027
-0.00131223 0.00305036 0.00239367
-0.00032153 2.01762e-05 -0.000198197
-3.23777e-05 9.92967e-05 6.36435e-05
-0.000226665 0.00050982 0.000310179
-0.000143869 0.000180264 2.6084e-05
-9.63567e-06 -0.000135649 4.70683e-05
-2.6432e-05 -2.31565e-05 0.000116894
-2.68064e-05 -3.83959e-05 -5.7915e-05
-7.34734e-05 3.18823e-05 -5.32739e-05
-7.00975e-06 -3.54535e-06 -2.00902e-06
0.00019438 0.000232158 -8.59581e-05
-0.000153858 -6.02186e-05 0.00106214
4.27342e-05 -4.56803e-05 -5.96411e-05
-0.00208051 -3.1355e-05 -0.00133269
-0.000469035 -0.000226689 -0.000176418
0.00145746 -0.000221303 -0.00101335
-0.000836055 -0.000487422 0.00099268
3.07889e-05 -0.000790888 -0.00043804
0.000594867 -0.00117423 0.000128429
-0.000720023 0.000198595 -0.000840094
-0.00105955 -0.000378168 0.000518263
5.02778e-07 1.71216e-05 1.31382e-05
-1.98152e-05 -2.8929e-06 1.34693e-05
1.02565e-05 -8.36996e-06 2.56982e-05
-0.000491762 -4.04584e-05 -0.000902447
0.000527995 -0.000596861 0.000350558
-2.01589e-05 -2.07077e-06 1.61678e-06
0.000259029 -0.000679509 8.294e-05
0.000360758 -0.000534798 0.000270098
0.000301094 0.000122326 -0.000274196
-0.00131587 -0.000264276 0.00442379
-0.00365804 -0.00514814 -0.00584666
-0.000315455 -0.000200857 0.000113744
-9.35088e-05 8.69085e-05 0.000143009
0.000695082 -0.000217958 4.21022e-05
9.38406e-05 -0.000125526 2.09101e-05
7.39887e-05 0.000406043 -0.000238522
8.54193e-06 1.91281e-06 -4.5356e-06
-0.00222584 -0.00531913 -0.00271826
-2.05444e-05 -0.000131708 -0.000162622
-0.0038493 -0.00166224 0.00104018
-0.0001144 0.000103925 0.000190107
-0.000409313 0.000241308 -0.000474477
0.00128682 -1.67064e-05 -0.00106051
-0.000131092 0.000110245 0.000190374
0.000157561 0.000356796 -0.000151422
5.00827e-06 -6.48432e-06 -1.18639e-06
-6.19105e-06 2.24848e-05 2.33372e-05
0.000166201 0.00033206 0.000214305
-0.000204588 -0.000170441 -0.000617316
-0.000376604 -0.000407623 0.00121354
-3.36877e-05 -5.68555e-05 2.19927e-06
-0.00172515 0.00287152 -0.00349337
-0.00236394 -0.000734495 -0.00322254
-0.00212481 0.000727638 -0.0016323
-0.000566127 0.00240398 0.00211764
-2.52536e-06 -8.66408e-06 8.63117e-06
0.000601467 -0.00282995 -0.00145876
-5.28639e-05 9.84192e-06 2.42616e-05
-0.000897154 0.000819533 0.00150519
0.00020367 0.000156266 0.000571818
-3.81768e-06 -2.24129e-05 3.41243e-06
-4.08363e-05 3.83953e-05 -5.05535e-05
0.00132472 -0.000543376 -0.000592997
0.000789158 0.00116361 -0.000116761
-1.73986e-05 1.70539e-05 -2.86285e-05
3.33597e-05 -1.71676e-05 2.41366e-05
-2.40366e-06 5.586e-06 3.53628e-07
-0.000245693 -0.000176782 -0.000269785
-0.00292672 0.0043187 0.00126507
2.44417e-05 0.000209424 0.000318716
8.7826e-06 0.000888045 -0.000535089
-0.000754771 0.00121662 -0.000365321
-0.000486417 0.00135026 -0.00273344
-4.11845e-05 6.49606e-05 9.24676e-05
0.000621631 -0.000755115 0.000136255
-4.21733e-05 -7.26312e-05 -4.82777e-05
-5.09449e-05 -4.16647e-05 -1.6702e-05
-0.000152348 0.000257011 -2.30571e-05
0.00132746 -2.50231e-05 -0.000744836
-5.89178e-05 4.03795e-05 0.000143877
0.000277958 -0.000151211 0.000399576
0.000146486 -0.000583692 0.00105564
2.18485e-05 2.18454e-06 1.14837e-05
-1.19833e-06 -2.57383e-07 -3.7466e-07
0.000162198 0.000112985 -0.000154269
-1.20588e-05 -1.07298e-07 -6.05293e-06
3.28195e-05 -0.002159 -0.00175071
-0.00590784 0.00333093 -0.00263388
7.44602e-05 -0.000133334 -0.000146511
-0.00303823 0.00244441 -0.00155743
5.27299e-05 0.000110405 3.43582e-05
-8.44912e-06 -7.72812e-06 1.2903e-06
-5.30904e-05 7.75873e-05 -1.80799e-05
-0.00116516 0.000263266 0.00205167
0.00342848 -0.000988506 0.00229497
6.41619e-06 1.77647e-05 1.28499e-05
-0.000211866 0.000343001 -9.39878e-05
-0.000729853 -0.00260561 0.00253045
0.000286318 -4.63385e-06 -0.000466904
-0.000189523 -0.00010067 -9.60535e-05
0.000320923 -0.000917778 -0.00115563
-2.92394e-05 6.61883e-05 -5.91202e-05
1.24017e-06 -5.73271e-05 -2.07832e-05
7.92783e-05 -3.53729e-05 -6.95566e-05
4.91841e-05 2.59032e-05 -7.1217e-05
-0.00210275 0.000770089 0.00344034
-6.14194e-06 -4.12983e-05 -7.52804e-06
0.00272476 -0.00157973 0.000765744
5.11981e-06 4.48397e-06 -3.22592e-06
9.10722e-05 0.00026051 5.07683e-05
-8.32139e-05 2.23877e-05 -0.000131395
0.000189876 -0.00234469 0.00501377
1.33497e-05 -3.12865e-05 3.38401e-05
-0.00572759 8.52488e-05 0.00216776
-0.000924444 0.00211517 0.000800804
-2.6984e-05 3.51571e-06 -2.4465e-05
-9.29151e-05 0.000212106 -2.1122e-05
-0.000660503 -0.000539028 0.00053788
-0.000629855 0.000544299 -0.000134813
1.24519e-05 -1.71909e-05 1.09393e-05
-0.000193269 0.000202931 0.000180981
-5.83436e-05 7.16444e-05 3.89899e-05
-3.21506e-05 -7.9307e-08 2.95496e-05
-3.55984e-07 -4.71641e-06 -8.13701e-06
5.33947e-06 2.80385e-08 -2.07576e-05
0.00104198 0.00173242 0.00439962
-0.00429751 0.00317685 0.00107179
4.93409e-05 0.00023442 -3.3175e-06
-0.0014772 0.000745798 0.00222174
0.000486524 0.00013402 -0.00019213
-0.000435537 -0.000345747 0.00026184
0.000676798 -0.000235231 0.000786582
5.76726e-05 -0.000103474 1.44447e-05
3.53278e-05 -7.75343e-06 -0.000207508
-4.48183e-05 2.01598e-05 0.000227791
2.06855e-05 -0.000151187 1.79884e-05
-0.000129853 -3.41219e-05 0.000246268
0.000112228 3.2923e-05 -7.18137e-05
-0.00246269 0.00163896 -0.000170449
0.000584579 -0.000343598 -0.00185109
0.00114668 0.0013777 -0.00362901
-0.000726258 -3.93758e-05 0.000118132
0.000224225 0.000670181 -0.000322846
2.01249e-06 -1.04593e-06 2.28417e-05
-2.45991e-05 9.9621e-05 1.77785e-05
9.76575e-06 -6.56947e-06 -6.94198e-06
0.000420766 0.000618676 0.000195624
-0.000819192 0.000543772 -0.000526974
-4.91069e-05 0.000177095 4.20932e-05
-0.000647897 0.000314761 -0.000185957
-0.000790315 -0.000844809 0.00168478
-2.80988e-05 -0.000320494 0.000460424
1.42482e-05 5.00946e-06 1.90571e-05
2.09157e-06 3.86432e-06 -8.98823e-06
5.21417e-05 5.28749e-05 -1.74713e-05
-4.83121e-05 1.77989e-05 -0.000164456
2.15233e-05 -1.88618e-05 4.70615e-06
-9.77629e-08 -8.33353e-07 8.82596e-07
1.65099e-05 -1.16425e-05 1.59744e-05
-0.00246832 0.000464601 0.000103068
-0.00170209 0.00128457 -0.000750152
0.00282797 -0.00534223 0.000787222
0.00204391 -0.00363598 0.00181405
-0.000282634 0.000606625 -0.000116128
-0.000307427 -0.00310941 -0.00218373
-3.29651e-05 -0.00168698 0.00143751
-0.000215651 0.000659231 0.000845472
0.000123533 -4.73754e-05 -8.29113e-06
0.00026865 -0.000140254 1.76574e-05
-0.00222646 0.000116492 -0.00261248
0.000248743 -0.000414971 -0.00400056
-1.16807e-05 0.000100645 -4.12017e-05
-0.000203955 0.000151559 0.000145927
-7.49002e-05 6.34305e-05 6.5234e-06
0.000437708 -0.000339155 6.29935e-05
-0.000226486 -0.000864655 -0.000724723
-2.02613e-06 -0.000143582 -0.000170242
5.06688e-05 1.55989e-05 -1.56411e-06
0.000415134 -5.24552e-05 0.00212366
-1.13261e-05 5.3892e-07 -0.000106408
-0.0035456 0.0035543 0.00069609
1.10104e-05 0.000186402 8.00251e-05
-3.35136e-06 -5.67691e-05 9.38023e-06
0.000124951 -0.000122853 -0.000173485
0.00121728 -0.000130125 0.00114309
-7.12182e-05 0.000220215 -0.000124657
8.54458e-05 -5.43057e-05 -6.92081e-05
-9.37213e-05 1.42494e-05 0.000125563
-0.00057472 -0.000232913 0.000549712
-0.00013552 0.000593589 -0.00037548
7.56579e-06 3.65675e-05 6.53807e-05
0.000268949 0.000487842 0.00121774
-0.000373084 -0.00108612 0.00122352
0.000371055 -0.00215742 0.0020601
-0.0010528 0.00261356 -0.00192856
4.54828e-05 -2.53285e-05 -4.26441e-05
0.00142676 -0.000840235 0.000313924
8.30547e-05 -1.66732e-05 -7.23346e-06
-1.55133e-05 0.00014504 5.71612e-05
-5.90929e-05 0.000141035 2.20173e-05
-9.73329e-05 -9.94217e-05 -0.000106628
0.000234796 0.00138012 0.00265106
-0.000449983 0.000160015 0.000699784
-0.00377739 0.00182705 -0.00112704
1.11634e-05 -2.51772e-06 1.06275e-05
0.00211781 0.00301843 0.000214192
-2.37191e-06 4.2355e-07 -1.62964e-06
0.00127805 -0.000825061 -0.000635251
-0.000130875 -0.00023157 0.000238371
-3.36471e-05 -0.00208056 -7.04569e-05
0.00103069 0.00169612 -0.00258309
-1.09398e-05 -2.93466e-06 -2.07682e-06
2.9642e-05 7.14333e-06 3.2672e-05
6.51931e-06 -3.28351e-05 2.79133e-06
3.56586e-06 -2.7125e-06 1.88571e-05
-3.06394e-05 2.91984e-05 -2.09731e-05
0.00191052 -0.00047686 0.00206257
0.000120905 -0.000286946 -0.000124004
-7.75816e-06 1.30508e-05 2.21145e-05
-0.000262241 -6.47604e-05 -0.000143374
-4.55969e-05 -7.72388e-06 -2.08124e-05
9.65193e-06 -2.59778e-06 7.94942e-06
0.00483441 -0.006109 0.00863526
-0.00151399 -0.000819683 0.000809021
8.47926e-05 8.17058e-05 -0.000109064
0.000790749 0.00312717 0.00865642
9.38574e-05 0.000181172 -7.71963e-05
1.42115e-05 -0.000355655 0.000467026
-0.00360184 -0.00147866 0.00549169
-2.16744e-05 -4.89733e-06 3.45424e-07
-0.000274074 -0.00146622 0.000516303
7.96282e-06 -0.000250928 0.000280481
0.00025084 0.00157042 0.000228451
-0.00271757 -0.000973885 0.00375178
0.000472109 -0.00047349 0.00137581
0.00015087 -0.000904356 0.000722548
0.00161577 -0.000361722 0.000743853
-0.000930691 0.00434054 0.00517758
-0.00105139 -0.000717826 -0.000635146
4.41464e-08 -8.61732e-08 -1.35287e-07
0.00261826 -0.001539 -0.00137339
6.25274e-05 0.00010016 -1.08144e-05
-1.87218e-05 -1.44641e-05 1.37345e-05
-2.22837e-05 4.55318e-05 -2.99835e-05
-2.45403e-05 1.26243e-05 1.61996e-05
-0.00147949 0.00315996 0.00423501
-0.00010786 0.000118298 -0.000522692
-1.2493e-06 0.000453955 0.000319966
-0.000678678 2.78975e-05 -0.000315123
-8.20874e-06 1.76265e-05 1.8744e-05
-8.82874e-05 -2.82189e-05 -4.35272e-05
4.65386e-05 -0.00010001 -5.74964e-05
0.00164303 0.00339319 0.00132589
-7.49412e-05 0.000964311 -0.000183903
0.00251189 -0.00251508 0.00391283
0.00158866 -0.00187533 -0.000893681
2.01926e-06 -5.73764e-06 1.20169e-05
-3.66669e-05 3.83783e-06 5.92446e-05
-1.79403e-05 5.9741e-05 4.61756e-05
2.67997e-05 0.000220077 -6.95222e-05
0.000223448 0.000777464 0.00159446
0.000986399 -0.000977914 0.00155282
-9.37159e-05 -0.000278477 0.000321761
7.96699e-05 2.56649e-05 6.67936e-05
9.70864e-06 3.67596e-05 2.00702e-05
-7.75345e-06 -1.65858e-06 -1.37481e-06
-8.58245e-05 0.000575349 -0.000312296
8.36874e-05 -5.99522e-05 -0.000169839
0.000748823 -2.71098e-05 -0.000143173
-1.36165e-06 -2.47333e-05 5.60786e-05
-0.0004018 -0.000459556 -0.000221541
-0.000153636 6.05846e-05 7.1072e-05
3.85507e-05 0.000284385 -0.000108588
0.000607582 -0.000507239 -0.00196005
-2.49936e-05 4.5873e-05 -2.89203e-05
-0.00114098 -0.000897755 0.000444469
-7.58385e-07 -1.76595e-05 -2.45745e-05
-0.00101898 -0.000264106 -0.000478527
2.97746e-05 3.47781e-06 7.9619e-05
3.03934e-06 2.31609e-05 2.94711e-05
-7.86074e-05 -9.97224e-05 -0.000714614
1.89617e-05 -3.12937e-05 3.00513e-05
-5.22328e-06 -0.000414168 0.00047571
-0.000416261 0.000112777 0.000975618
4.86712e-05 2.12915e-05 -9.4184e-06
-0.00176327 0.00372241 0.00520615
-9.90336e-05 4.16446e-05 2.68282e-05
-0.00341598 0.00111289 0.0040416
0.000213449 0.00242746 0.000982323
6.09457e-05 7.65043e-06 -1.16331e-05
-0.000326287 0.000289922 7.97948e-05
9.83138e-05 7.4619e-05 0.000273773
9.5584e-05 -6.49528e-05 4.85e-05
-2.50982e-06 -1.20486e-05 3.42087e-06
1.13704e-06 -2.35542e-06 -6.82977e-06
-0.000335699 -0.000877662 0.000503749
0.000140439 0.0007544 -0.000981051
-3.35235e-06 -0.00020944 7.15788e-06
-0.000626308 -0.00173951 0.000748594
-6.21302e-05 -2.65832e-05 1.81137e-06
-0.000809092 0.000655168 0.00203885
-0.00205922 0.00106333 0.0051831
0.00173375 0.000460172 -0.000601226
1.07708e-05 -9.99607e-05 -1.68677e-05
4.46328e-05 -6.35911e-05 -3.8755e-05
-0.00121873 -0.000906646 0.00110893
0.00113087 0.000394664 -0.00113349
-0.000119615 -0.00057416 -0.0013062
0.000936498 -0.00233316 -0.000593335
9.19652e-08 -0.000790015 0.00185023
1.23216e-05 -1.66073e-05 -2.7847e-05
9.89315e-06 -2.16837e-06 -1.20448e-06
-0.000924356 0.00140417 0.00127271
1.23994e-05 -2.48165e-05 -3.00803e-06
0.00261838 -0.00068575 -7.86407e-05
4.50304e-05 7.785e-05 2.39946e-05
3.7361e-05 6.21177e-05 1.10896e-05
-3.6273e-06 4.28768e-08 -1.6062e-06
0.000570414 -0.00202234 -0.00617208
-2.96872e-05 2.1014e-05 1.06615e-06
-0.000644853 0.00138039 -0.00137062
-0.000791266 -0.0012617 0.000640252
-0.000145821 2.68144e-05 0.00110262
0.00121251 -0.00178278 -0.00321194
-0.00024389 2.39922e-05 0.000103057
1.97353e-05 7.75852e-05 -4.19341e-05
-0.00152765 -0.000445329 -0.000751801
-2.81967e-05 1.36258e-06 5.87808e-06
0.00189036 0.00252699 0.000944648
-0.00086586 0.00149858 0.000288785
0.000111196 5.29476e-06 0.000102369
-0.000150143 -5.05633e-05 -8.56341e-05
-0.000931494 -0.000118377 -0.000570159
2.38512e-05 4.31454e-05 5.03911e-05
1.75825e-05 2.39872e-06 4.75101e-05
1.57579e-05 -1.58787e-05 3.96437e-07
-0.00360151 0.00500147 -0.00664495
-0.00134524 -0.000239391 -0.00422978
-0.0015301 0.00221288 -0.0012703
6.47288e-05 -9.70915e-06 -4.69376e-05
3.79066e-05 3.27943e-05 -2.05602e-05
0.00140158 0.000468645 -0.000127403
5.83342e-06 -0.00212878 -0.00163636
9.81623e-05 0.0012031 -0.000473154
5.82832e-06 -7.11913e-06 -3.72659e-05
-0.000788957 -0.00079602 0.000721445
-2.68154e-05 1.15997e-07 1.66542e-05
-0.00295966 -0.00168551 0.00312412
6.34697e-05 -2.45174e-05 1.56786e-05
-4.67758e-06 -2.55683e-06 -9.44373e-06
2.17218e-05 7.96113e-06 -4.50335e-06
0.00213523 0.000558914 -0.00963309
-4.93961e-05 1.06436e-07 1.82351e-05
-0.000192819 -0.000213886 -0.000236096
1.08252e-05 -4.23382e-06 -9.76494e-05
0.000166883 6.20609e-05 3.22465e-05
1.10076e-05 5.23007e-06 5.31318e-05
-0.000132681 0.000855704 -0.000137481
-4.60208e-05 -7.27684e-06 5.88102e-06
1.62599e-06 -9.04116e-06 -0.000122125
7.37669e-05 -7.00954e-06 -3.06454e-05
0.000580355 -0.00769093 -0.0073343
-0.000803605 -0.002797 0.00146826
-0.00027299 0.000107487 0.000191839
-3.74052e-05 0.000169391 -0.000176578
-0.000683332 3.25768e-05 0.00119941
1.32894e-06 -1.89259e-06 9.09095e-06
0.000125417 0.000347514 2.86622e-05
-4.53219e-06 1.22787e-05 1.09696e-05
-0.000177347 0 -7.75961e-05
5.88023e-07 0 8.91968e-05
-0.00649903 0 0.00311919
0.000549041 0 -0.000675337
-0.000528732 0 0.000288998
-0.000408963 0 0.000552988
-0.000100984 0 -0.000380795
-3.05863e-05 0 -0.000336469
5.30127e-05 7.9598e-05 0
0.00306681 0.00211248 0
-0.00170787 -0.00136029 0
-2.14832e-05 4.992e-05 0
0.00123352 -0.000370758 0
-4.16303e-06 1.31353e-05 0
-9.52635e-06 7.41503e-06 0
0.00342755 0.0013016 0
-0.000123915 -0.000316897 0
0.000160293 -6.97931e-05 0
-3.38079e-07 1.54543e-05 0
-0.000526718 0.000258944 0
-0.000125413 0.000104716 0
0.000395273 -5.11267e-05 0
-0.000255578 -9.92718e-05 0
-5.96752e-06 2.84826e-05 0
-0.000256035 -0.000915679 0
-0.000148118 0.000269581 0
-0.00025806 -0.000252033 0
5.45311e-05 2.2742e-05 0
7.92929e-05 -6.01777e-05 0
-2.78554e-06 -5.59396e-05 0
-0.00145077 -0.000419842 0
1.48291e-05 -6.19231e-07 0
1.01374e-05 8.8767e-08 0
2.50961e-05 -1.55191e-06 0
1.57124e-05 -7.6825e-06 0
-0.000401015 0.000176323 0
0.000865986 -0.000368015 0
-0.000205347 -0.000265775 0
-7.99624e-06 2.27193e-05 0
0.00237643 0.00344873 0
-0.000173892 -9.07804e-07 0
0.00195676 0.0017303 0
1.75687e-05 3.08341e-06 0
0.00105237 -0.00107968 0
5.62962e-05 -7.01932e-05 0
-1.25499e-09 1.4287e-10 0
-1.7692e-05 -9.87294e-06 0
0.000798617 -0.00154037 0
7.62478e-07 1.43966e-05 0
6.6324e-06 -3.30787e-05 0
-4.51248e-06 -4.34716e-06 0
-0.000452204 -0.000856933 0
3.11087e-05 -8.34771e-05 0
5.96119e-05 1.32836e-05 0
4.48973e-05 9.25004e-05 0
-0.000149163 0.000209884 0
-0.0001472 -3.83841e-05 0
-1.1516e-05 -1.16103e-05 0
1.43143e-05 1.2686e-06 0
1.72326e-05 7.49022e-06 0
1.50119e-05 -7.81987e-07 0
1.2456e-08 2.07513e-09 0
-8.2548e-05 0.000450482 0
0.00173833 -0.00191538 0
0.000124499 -0.000686076 0
0.00211653 0.00762368 0
-0.000777052 0.00118456 0
-5.37357e-06 1.36571e-05 0
-9.4347e-05 0.0003031 0
-0.000146222 -7.50607e-05 0
-0.000388506 -0.00275646 0
-4.78511e-06 1.38594e-05 0
0.000269058 0.000451876 0
-2.03664e-07 1.46722e-05 0
2.53095e-05 7.58279e-05 0
6.15164e-05 0.000146042 0
4.35524e-06 -3.57961e-05 0
-6.00233e-06 1.3389e-05 0
-0.000208282 -3.59288e-05 0
5.89652e-07 1.46643e-05 0
0.000193345 -0.00067504 0
5.50509e-07 8.05707e-06 0
0.000879762 -0.001038 0
1.34774e-05 -5.8089e-06 0
1.43062e-05 -3.27736e-06 0
1.07442e-05 9.99062e-06 0
1.01944e-05 2.00175e-06 0
1.46462e-05 -1.63914e-06 0
9.47459e-06 1.12082e-05 0
-0.000671192 0.00044601 0
0.000245702 -0.000228623 0
-8.09959e-10 -9.66887e-10 0
3.13356e-07 -7.4028e-06 0
0.00782954 -0.000900553 0
-5.65798e-06 1.14072e-05 0
0.000105847 0.000188594 0
2.8449e-05 -1.70468e-05 0
-1.49756e-05 -1.31985e-06 0
0.000124952 -0.000207297 0
0.000315174 -0.00113987 0
-5.43458e-07 2.0038e-05 0
9.84588e-05 3.60065e-05 0
7.13797e-05 -4.03306e-05 0
6.46314e-06 -6.15222e-05 0
2.78303e-05 -3.86723e-06 0
1.29154e-05 -7.15601e-06 0
1.43402e-05 -3.02005e-06 0
1.31047e-05 -1.24682e-06 0
-0.000479555 -0.000104606 0
1.34781e-05 3.9028e-05 0
-0.00089903 0.000338407 0
0.000253481 -5.51555e-05 0
-1.08306e-09 -6.70252e-10 0
-3.07624e-05 7.0479e-05 0
-1.20134e-05 -3.21403e-06 0
0.000191624 5.59866e-05 0
6.03288e-05 3.4481e-05 0
0.00019114 -8.4956e-05 0
-0.000148184 7.28855e-05 0
0.000154805 0.000262432 0
-2.37271e-05 1.15549e-05 0
3.51938e-07 1.35384e-06 0
-0.000204096 0.000231427 0
-0.00130417 7.18195e-06 0
4.56234e-05 -2.50504e-06 0
-3.11034e-06 9.37102e-06 0
6.86553e-06 -9.03889e-06 0
-1.41747e-05 3.80276e-06 0
-3.44148e-05 -9.17085e-06 0
-1.15417e-05 0.000131774 0
1.48971e-05 1.15964e-05 0
0.00265162 -0.00240609 0
-0.000199666 -6.18891e-05 0
-1.80471e-06 -1.83008e-06 0
0.000612204 0.000159973 0
-1.25871e-06 1.40854e-05 0
-0.000584361 -0.00163537 0
2.20172e-05 0.000185263 0
-0.000463055 -0.000469423 0
0.000117317 -0.000534205 0
-0.00273966 -0.000205034 0
-0.00228962 0.000534673 0
0.000118051 -3.06799e-05 0
-0.000131595 -0.000124795 0
4.8163e-05 -7.56398e-05 0
-7.73036e-05 -2.45438e-05 0
1.21627e-06 -1.43543e-05 0
-0.000342126 -9.28145e-05 0
2.33872e-06 5.26256e-07 0
-7.52655e-06 1.19301e-05 0
0.000672275 0.000242299 0
-0.000473221 0.000245256 0
0.000172888 0.000212993 0
-0.00107413 0.000122357 0
4.87669e-05 7.26599e-05 0
-0.000373941 -0.000368629 0
-4.02026e-06 -3.25254e-06 0
-2.48535e-05 -0.000319474 0
3.00421e-05 -5.30811e-06 0
-0.00151367 0.000642666 0
1.29865e-05 -6.27525e-06 0
-0.000263335 -0.000260811 0
0.000505451 -0.00179869 0
-3.93562e-05 -0.000217892 0
-1.18769e-05 1.64569e-06 0
-0.000389571 0.000923343 0
-0.000959397 0.00122994 0
-0.000460651 0.000316436 0
0.000104411 5.77826e-05 0
-0.000217875 8.13822e-05 0
-4.86396e-06 2.35033e-07 0
-6.71254e-05 -5.87618e-05 0
-0.00142795 -0.000290824 0
-2.32128e-05 -0.000321906 0
-1.35543e-05 -1.20391e-05 0
4.69499e-05 4.73252e-05 0
0.000362818 0.000148162 0
-4.21947e-05 0.000129821 0
7.50454e-05 2.11487e-05 0
-0.00130472 0.000878901 0
-0.000114084 -4.11398e-05 0
-0.000518675 -4.9864e-05 0
-0.000181239 -0.00220095 0
-0.00071594 0.000108671 0
1.18598e-05 8.46538e-06 0
-0.00253574 0.00176235 0
1.39902e-05 3.22498e-06 0
1.17779e-05 8.75551e-06 0
    <DataArray type="Float64" Name="norm"/>
0.000290523
0.000319535
0.000822934
0.00174764
2.86387e-05
0.00204343
0.000217139
0.000398476
0.00049295
6.72959e-05
0.000646201
0.000129697
2.78078e-05
0.000274658
0.00133414
0.000682109
0.000130713
5.81955e-05
3.48957e-05
0.001587
0.00135596
0.000444832
0.000240536
0.000595214
0.00207531
0.00160982
0.000289643
0.000142238
0.00232181
0.00059614
0.000336201
0.000281893
0.00100479
0.000484478
2.00924e-05
0.000205003
4.6428e-05
5.06525e-06
1.16432e-05
5.34485e-05
0.000352902
0.000215623
0.000682766
0.000676492
0.00152203
6.79222e-05
0.000205657
2.42111e-05
0.000643463
0.000180143
7.24946e-05
0.000318678
0.000704811
1.11489e-05
8.84925e-05
0.000147132
0.000495274
2.42503e-05
7.65108e-06
0.000330616
4.95182e-05
0.00131891
4.06671e-05
0.000467653
6.06607e-05
0.000446272
0.0020825
0.000263044
1.35981e-05
0.000303457
0.000289967
9.301e-05
0.000179407
0.000327381
0.000345962
3.61667e-05
0.00265463
0.00594686
0.00178764
0.00156962
0.00701104
0.000581805
5.48475e-05
0.000218093
0.0011499
6.45241e-05
4.27639e-05
0.00113349
0.000387749
9.81124e-05
4.89037e-05
0.000187174
0.000407172
0.000181866
1.71551e-05
0.000858075
8.2489e-05
0.000186811
0.00122263
8.73364e-05
0.000594155
2.24557e-05
0.00046696
0.000344036
0.000177399
0.00135091
0.00107813
0.00187636
0.000143961
0.000184076
1.65902e-05
0.00375692
0.00032896
0.00179922
0.000251996
0.0015374
0.000754544
0.00250958
0.00128786
0.000108503
0.00169997
0.00136268
0.000320155
3.39383e-05
0.000967765
0.00158614
2.97754e-05
0.00291006
0.00249666
0.00152459
0.000187524
7.08741e-05
0.00096064
2.37495e-05
0.00014245
0.000124615
3.06888e-05
8.64539e-06
0.000103888
0.000596962
0.00052529
0.000698099
5.65279e-05
7.09933e-05
2.62121e-05
0.00281409
1.14288e-05
3.60992e-05
0.000847693
0.000575422
0.00455441
0.00192275
0.000395086
0.000307866
0.000270149
6.90999e-05
4.33307e-05
0.000344337
0.00190227
0.000357688
0.00119017
0.0015152
0.000293775
9.94684e-05
0.000158384
0.000135105
9.59454e-05
0.00221586
4.5834e-05
3.80738e-05
0.000340911
0.000877281
0.00139142
0.00010215
3.75489e-05
0.00234663
0.000758222
1.53268e-05
0.00348002
0.00134274
0.000256002
4.0005e-05
0.000297097
0.00144663
0.0001013
0.000267132
0.00425668
0.00140125
7.8807e-05
0.000948383
0.00208228
0.000845353
0.00250435
0.00409345
0.000378247
0.000122306
0.000638361
0.000232107
0.000143906
0.000122062
7.4478e-05
9.61922e-05
8.10816e-06
0.000314753
0.00107492
8.64289e-05
0.00247095
0.000550005
0.00178887
0.00138636
0.000904616
0.00132256
0.00112411
0.00123865
2.15873e-05
2.41336e-05
2.89076e-05
0.00102853
0.000870582
2.03294e-05
0.000731921
0.000699363
0.000425211
0.00462291
0.00860627
0.000390887
0.000191699
0.000729669
0.000158114
0.000476695
9.85876e-06
0.00637467
0.000210274
0.00431997
0.000245007
0.000671487
0.00166759
0.000256089
0.000418398
8.27869e-06
3.29927e-05
0.000428735
0.000672298
0.00133442
6.61229e-05
0.00483998
0.00406355
0.00277645
0.00325331
1.24876e-05
0.00324012
5.89923e-05
0.00193445
0.000626799
2.29904e-05
7.54815e-05
0.00154977
0.00141081
3.75917e-05
4.46113e-05
6.09147e-06
0.000405464
0.00536817
0.000382146
0.00103683
0.0014776
0.00308731
0.000120276
0.000987517
9.68742e-05
6.78991e-05
0.00029966
0.00152235
0.000160632
0.000509692
0.00121513
2.47791e-05
1.28165e-06
0.000250744
1.34931e-05
0.00277981
0.00727565
0.000211631
0.004199
0.000127083
1.15229e-05
9.57354e-05
0.00237408
0.00424246
2.28445e-05
0.00041397
0.00370474
0.000547722
0.000235116
0.00151023
9.34399e-05
6.09908e-05
0.00011124
9.03433e-05
0.00410494
4.24258e-05
0.00324133
7.5316e-06
0.000280601
0.000157131
0.00553819
4.79813e-05
0.00612468
0.00244332
3.65928e-05
0.000232526
0.00100803
0.000843299
2.38798e-05
0.000333599
0.000100285
4.36674e-05
9.41181e-06
2.14334e-05
0.00484186
0.00545066
0.000239579
0.00277028
0.000539983
0.000614649
0.001064
0.000119338
0.000210637
0.000233032
0.000153652
0.000280489
0.000137245
0.00296312
0.00197137
0.00404755
0.000736855
0.000776949
2.29541e-05
0.000104142
1.36645e-05
0.000773352
0.00111556
0.000188536
0.000743926
0.00204372