<?xml version="1.0"?>
<VTKFile type="UnstructuredGrid" version="0.1" byte_order="LittleEndian" compressor="vtkZLibDataCompressor">
 <UnstructuredGrid GhostLevel="0">
  <Piece NumberOfPoints="1039" NumberOfCells="1039">
   <PointData>
    <DataArray type="Float64" Name="Elongation" NumberOfComponents="3"/>
3.08172e-05 1.38368e-05 -1.04635e-05
-2.24407e-05 1.26666e-05 0.0001467
-0.000210278 -0.000197799 0.000308761
4.95952e-05 7.81452e-06 -2.45077e-05
-0.000152048 -1.82941e-05 5.76019e-05
-2.46459e-05 1.8591e-05 2.48722e-05
4.61815e-05 -3.67992e-05 -4.70497e-05
0.000122177 -2.54936e-05 -9.51316e-05
1.42629e-05 9.81136e-06 1.48652e-05
-2.88981e-05 5.38413e-05 8.01949e-05
-0.000118799 -0.000125736 0.000281347
0.000320596 5.39105e-05 -0.000589192
3.73322e-05 2.08836e-05 2.16681e-05
2.19339e-05 -2.98861e-06 2.12033e-05
-4.22348e-05 -1.53908e-05 2.89446e-05
8.34209e-06 -0.000114002 0.000104282
-5.80776e-05 9.88195e-06 2.97895e-05
-2.81951e-05 8.45564e-05 8.55155e-05
-5.72966e-06 -1.78396e-05 -1.83409e-06
1.03357e-05 2.83334e-05 2.45093e-05
-4.28376e-05 -4.93344e-05 -1.14868e-05
1.89743e-05 7.34053e-05 -2.52789e-06
3.86294e-05 4.82256e-06 -4.68223e-05
-6.67575e-05 -4.26537e-05 2.64274e-05
-2.24327e-05 -2.72962e-05 6.13609e-05
2.57038e-06 -1.75948e-05 -2.72829e-05
1.12248e-05 1.42306e-05 -2.36731e-06
2.38372e-05 3.08144e-05 6.9145e-05
6.12745e-05 -1.83072e-05 -3.47897e-05
-5.37261e-05 8.43253e-05 -0.000116241
1.00973e-05 -1.07633e-06 2.51756e-05
-0.000112701 7.99223e-05 0.000135954
-7.68953e-06 -3.95744e-05 4.21518e-05
-4.72782e-05 -1.00026e-05 -4.84732e-05
3.78897e-06 -5.5717e-05 4.09456e-05
-0.000443726 -3.39271e-05 -0.000372764
-3.94154e-05 -3.58666e-05 2.2207e-05
0.000104734 5.71364e-05 0.000156105
2.63356e-05 2.68322e-05 2.4008e-05
9.8117e-07 2.50113e-05 6.34223e-06
5.05789e-05 -1.05315e-05 -3.25207e-05
-6.16037e-05 3.35668e-05 -6.40171e-05
-7.64579e-06 -5.29905e-05 6.39211e-05
6.98934e-06 -1.86566e-05 2.3506e-05
9.86115e-06 9.87662e-06 1.84024e-05
-1.64243e-05 0.000106057 -6.14965e-05
-8.65504e-06 8.71652e-06 1.36278e-05
9.31734e-06 -6.04751e-07 6.77676e-06
3.74662e-05 7.7788e-06 2.85737e-05
6.44036e-06 -3.5211e-05 2.86993e-05
1.72372e-05 0.000170141 0.000157573
-0.000347905 -0.000121179 -0.000220291
-8.9522e-06 3.72465e-06 -5.24834e-06
-0.000398189 0.000168476 -6.97747e-05
2.13681e-05 6.25743e-05 5.50165e-05
2.57908e-05 -2.69737e-05 -5.96059e-06
8.80433e-05 -2.94209e-05 -9.61785e-05
-0.000106329 5.44644e-05 -0.000151732
-0.000104189 -0.000103934 0.00015879
2.50687e-05 -5.7902e-05 6.35623e-05
4.41749e-05 5.11229e-05 7.28129e-05
-3.42345e-06 8.12303e-07 -1.95247e-05
4.34968e-05 6.66128e-05 -7.56212e-05
7.15468e-06 5.09921e-05 -3.18486e-05
-2.28066e-05 2.86306e-05 3.3478e-06
3.03302e-05 4.41099e-06 1.76532e-05
-0.000102544 3.86924e-05 3.31423e-05
0.000473508 0.000251602 -6.10327e-05
0.000397865 3.3236e-05 0.000229707
8.102e-05 -0.000150702 7.43839e-05
-8.04252e-05 -0.000305441 -0.000660378
-0.00012362 0.000159149 3.11518e-05
1.31323e-05 3.35611e-05 5.93995e-05
-5.02766e-05 4.32706e-05 -4.9492e-05
-4.72687e-05 6.52322e-06 4.3361e-05
-1.05193e-05 1.413e-05 1.5301e-06
-0.000138788 -1.17188e-06 -0.000104321
-8.11265e-05 4.29972e-06 0.000225066
-0.000481521 -0.000464378 0.000735499
2.02518e-05 5.3762e-05 6.24769e-05
3.10858e-05 1.16987e-05 -3.80356e-06
0.00127535 0.000240176 -0.000763514
-1.99127e-05 3.38376e-05 4.10207e-05
0.000133036 -5.47605e-05 7.49439e-05
8.88609e-05 4.59805e-05 -1.4743e-05
3.62032e-09 -1.91085e-08 -5.49486e-10
1.81034e-05 -1.59707e-05 -0.000108785
-4.17599e-06 -1.12928e-06 8.15335e-06
7.99525e-05 -2.25665e-05 -4.00818e-05
7.71736e-06 0.000103225 8.57065e-05
-7.5938e-05 1.57821e-05 7.35149e-05
3.57104e-06 2.96134e-05 2.85117e-05
3.50429e-05 1.34902e-05 1.22227e-05
2.45286e-05 -1.11532e-05 1.21776e-05
6.4942e-05 0.00026011 -0.000181893
-8.86333e-06 5.18912e-05 4.03954e-05
5.63361e-07 -1.09626e-06 5.85009e-07
9.91075e-05 1.88923e-05 -4.78517e-06
-4.01273e-06 6.72558e-06 -1.02576e-05
0.000326237 -7.14584e-07 -0.000104341
8.10479e-06 4.86552e-07 -1.43502e-05
-0.000628885 0.000523745 -0.000632285
-8.03847e-05 -3.30856e-05 -1.59464e-05
1.70619e-05 7.33806e-08 2.03202e-05
2.90026e-05 5.26578e-06 -8.78703e-05
-0.000142908 -0.00016924 -0.000710544
0.00146889 0.00119226 -0.000304557
-3.55796e-05 -4.64572e-05 3.53589e-05
-4.02689e-05 0.000212555 0.00019052
8.05439e-06 -1.20061e-05 -1.43727e-05
2.15367e-05 -6.56382e-06 8.57013e-06
2.37462e-05 2.79833e-05 -6.6902e-07
0.000383001 -0.00049488 0.000599022
3.03402e-05 -5.9826e-06 -8.14235e-05
4.71227e-06 0.000692341 -0.00113115
-0.00012929 1.49696e-05 7.54138e-05
-4.04207e-05 -3.99545e-05 2.3262e-06
2.22654e-05 3.06428e-05 3.33724e-05
-4.10117e-05 -2.68097e-06 -0.00113538
1.36753e-05 -4.23863e-06 0.00281763
5.9353e-05 -0.00200313 0.00174931
-0.000154636 0.000160178 -0.000169027
3.07743e-05 -0.000138292 9.77953e-05
-0.000816788 -0.00151576 -0.00150757
-0.000152815 0.000708222 -0.00231895
0.000130457 -0.000180495 -0.000855364
-7.76592e-08 -8.56047e-07 8.70936e-07
-1.48757e-06 -4.20521e-05 -3.28898e-05
-0.000159089 8.92658e-05 -1.65722e-05
4.03898e-05 -1.6331e-05 8.91239e-06
-0.000207468 -0.000339877 0.000144668
-8.17306e-05 0.000226306 -0.000242371
3.016e-05 2.23662e-05 1.10931e-05
-0.000181512 2.76334e-05 -0.000221085
5.11479e-05 2.54311e-05 6.57401e-06
2.21688e-05 3.71308e-05 -4.37033e-05
1.17474e-05 4.47095e-07 2.48941e-05
-0.00018781 0.000639153 -0.000145799
4.41206e-06 -7.39089e-06 4.95226e-07
-0.00012832 0.000109817 -0.000250895
-2.07141e-05 -3.98693e-05 3.01358e-05
9.28545e-05 5.27686e-06 -0.000127193
7.50242e-05 -0.000140602 1.40424e-05
-2.23232e-05 -3.57875e-08 2.81374e-05
-0.000110509 0.000110827 -0.000234063
2.10872e-05 -4.16219e-05 -8.24837e-05
2.42698e-06 1.47663e-07 3.17928e-06
-6.48378e-05 4.24117e-05 -4.47269e-05
0.000298369 1.16625e-05 -0.000500147
2.8389e-05 -1.02666e-05 -7.73999e-05
4.53281e-05 2.13246e-05 8.8633e-05
0.000199405 -0.000178791 -0.000501481
-2.03585e-06 3.28338e-05 1.90066e-05
2.7084e-05 3.64657e-05 -4.03961e-05
-0.000323573 0.00022524 -0.00031205
7.043e-05 4.72911e-05 8.14747e-05
-0.000113973 3.86541e-05 -8.92081e-06
-4.53868e-05 3.55266e-05 1.35183e-05
2.15e-05 -1.40257e-05 -3.0145e-05
-1.13965e-05 1.92332e-07 -1.74345e-05
8.88523e-06 -6.6466e-06 1.36734e-06
4.33855e-05 -3.82162e-05 -8.05703e-05
-3.43708e-05 -3.36527e-06 -3.14419e-05
3.37498e-05 -1.84332e-05 -1.51934e-05
-5.79652e-05 -0.000371227 -0.000255526
-1.00025e-05 -4.70801e-05 3.1507e-05
-2.85903e-05 1.17596e-05 -2.12998e-05
2.47692e-05 -9.52321e-06 -1.65686e-05
1.30987e-05 2.93344e-05 3.20447e-05
0.000258635 -0.000333081 0.000449093
-6.42316e-05 -0.000511736 -0.000841201
5.00973e-05 1.54961e-05 -2.92315e-06
-1.70011e-06 2.56811e-05 6.0078e-05
8.01014e-05 3.37473e-05 0.000404136
-0.000168819 -0.000185842 0.00016244
-9.36137e-05 0.000203849 -3.79745e-05
-6.76537e-06 -1.31902e-05 -4.72243e-06
2.6501e-05 -2.72429e-05 1.57017e-05
-1.82441e-06 -5.5297e-07 9.0597e-07
0.000200848 0.000231202 -3.68125e-05
-4.02957e-06 1.17533e-05 9.04411e-06
-2.31513e-05 -1.58818e-05 2.66302e-05
-3.51132e-06 0.000109295 0.000101718
2.05986e-05 -3.26285e-05 4.34812e-05
6.98415e-05 -6.3702e-05 -1.69874e-05
5.94551e-06 -1.11373e-05 -1.55871e-05
-3.05019e-05 -5.57485e-05 2.02481e-05
-7.69759e-05 0.00059186 0.000368362
-9.52911e-08 1.83005e-05 1.34011e-05
4.31322e-06 2.23815e-05 -4.32737e-05
-3.00112e-05 7.80962e-05 -3.56296e-06
0.000121555 0.00030236 -0.00067368
1.74979e-05 -4.50338e-06 -7.95791e-06
-3.35536e-05 6.33333e-05 -2.12652e-05
-2.69776e-06 1.60416e-05 -2.45456e-05
-4.89546e-05 -7.49979e-05 0.000226868
5.98219e-06 2.84243e-05 2.85267e-06
0.000269869 -0.000187742 -0.000593481
0.000277147 -0.000394629 -0.000288994
1.3844e-05 -0.000165956 -6.63635e-05
0.000302114 0.000149537 -0.000183381
4.3852e-05 -8.97536e-05 3.87565e-06
-8.95486e-06 -8.32683e-06 -6.51063e-06
-3.56326e-05 2.94469e-05 -4.37159e-06
-5.74825e-06 5.15358e-06 8.77401e-06
1.64972e-05 -2.9951e-06 7.62234e-06
-0.000517631 -0.000220194 -0.000374532
-5.26521e-05 6.81046e-05 6.78794e-05
1.75441e-05 2.10658e-05 4.98679e-05
2.48754e-06 8.77885e-06 9.07933e-06
0.000118672 0.000162662 0.000203443
5.77383e-05 -2.17142e-05 -1.71659e-05
-1.96576e-05 7.99634e-05 0.00012217
-0.000275404 -5.67702e-05 -0.000330891
1.3178e-05 -1.80137e-05 -5.36684e-05
-0.001251 0.000124856 -0.00240267
-3.84752e-05 -6.32486e-06 6.12595e-06
0.000636529 0.000200978 -0.000394027
3.24836e-05 -3.17615e-05 3.11596e-05
0.000113198 1.39874e-05 9.50663e-05
-0.000170758 -2.1295e-05 -0.000264456
-3.23472e-06 9.30106e-06 8.91897e-06
-5.47011e-05 -0.000230714 -0.00120784
-3.47611e-05 -7.12152e-06 -0.000460168
-0.000298799 -0.000236978 0.000592477
-0.000348756 0.000181432 0.000885678
-4.39312e-05 0.000611333 0.000185517
-0.000388532 -0.000230216 0.000109779
2.36885e-05 7.51051e-06 4.72449e-05
2.083e-05 -0.000100961 5.18352e-05
-2.00274e-05 5.11141e-05 3.72842e-06
-0.000911302 0.00106769 0.00149449
-2.54722e-05 -6.80502e-06 7.5902e-05
-0.000218636 -3.54642e-05 -4.46253e-05
-1.03732e-05 -1.4544e-05 5.15862e-07
-7.97727e-05 -8.57814e-05 5.46693e-05
1.43188e-05 -1.66644e-05 7.18069e-07
-0.000203154 0.000255032 -0.000129661
3.38898e-05 -1.22195e-05 -2.48545e-05
0.000643636 0.000443403 0.000247098
4.08514e-05 1.07991e-05 -4.07331e-05
3.15269e-07 -5.14186e-07 -3.38311e-07
-1.30733e-05 2.61396e-07 2.67909e-06
-2.43096e-05 1.62718e-05 -2.67442e-06
-4.41421e-05 0.000124911 0.000206711
0.000234172 -0.000300725 0.000376193
1.83256e-05 1.8518e-05 1.76049e-05
-6.99006e-06 2.5472e-05 1.15582e-05
0.000640311 -0.00198146 -0.00262616
-9.63945e-06 0.000157955 -0.000148597
-2.38334e-05 0.000129954 0.000141899
-1.52293e-05 -1.06546e-05 2.28852e-05
-0.000505572 -0.000170117 -0.000227746
-0.000367992 -6.33506e-05 -0.000252816
0.000144991 5.5533e-06 -0.000125158
2.73113e-06 -8.58293e-06 -1.01492e-05
-3.92312e-05 0.000290097 0.00034172
-0.000459625 0.000506287 0.000924157
0.00051442 -0.000130176 0.000731673
-1.78835e-06 3.3763e-06 -1.7277e-06
1.88991e-06 3.06383e-05 2.73201e-05
0.000509518 0.000248451 0.000527048
-4.9959e-05 1.57975e-05 5.34164e-05
-6.64522e-05 8.43378e-05 8.84627e-05
-1.1307e-05 -2.91778e-06 1.04578e-05
8.4898e-06 -3.18333e-06 -1.94829e-05
1.55733e-06 -3.62399e-06 6.06092e-06
6.72121e-06 0.000115564 0.000222985
-3.30758e-05 -2.31716e-06 6.89463e-05
1.45326e-05 -0.000189987 -0.00018394
-5.8785e-06 1.54213e-06 -6.01882e-06
-8.39194e-06 4.22443e-06 2.05854e-06
-0.000161036 -0.000155274 -3.27039e-05
3.12323e-05 -1.28165e-05 2.05395e-05
-3.29031e-05 -5.65788e-05 -3.10859e-05
2.07331e-06 -5.29688e-06 6.15767e-06
-0.000330821 -3.11308e-05 0.000442978
1.02323e-05 3.20831e-05 -2.76236e-05
1.08269e-05 -6.501e-07 1.40345e-05
2.14599e-05 3.33614e-05 2.44683e-06
-3.34989e-05 -9.55321e-05 -0.000381427
-9.60237e-05 0.000250108 0.000426799
0.000254278 -0.000220122 -0.000149786
-6.89964e-05 -0.000297387 -6.57969e-05
1.52163e-05 -3.5551e-05 6.07553e-05
-0.000536693 -0.000137138 3.58941e-05
5.29638e-06 -1.09119e-05 -4.97806e-06
-7.00212e-05 -6.32055e-05 -1.72608e-05
6.64928e-05 -6.43335e-05 -2.51146e-05
3.05149e-06 -0.00010296 8.29077e-05
-8.70114e-05 0.000142647 7.04632e-05
2.74172e-05 4.16868e-06 3.21438e-05
2.8707e-05 1.94414e-05 2.88557e-05
-0.000301481 -9.83981e-05 4.85267e-05
-2.87851e-05 2.58182e-05 1.50743e-06
9.94429e-05 3.13601e-06 0.000360281
-1.85275e-05 -1.89705e-05 -1.01945e-05
1.40144e-05 2.2455e-06 1.77998e-06
-1.39404e-05 6.63043e-05 0.000148155
-2.12807e-05 -2.72817e-05 -6.14986e-06
-1.37209e-05 -0.000159241 -7.92336e-05
0.000373955 0.000790804 -0.00233493
0.000139129 6.02039e-05 -0.00116971
1.5257e-05 7.4282e-05 8.251e-05
-3.49927e-06 1.09607e-05 -2.91465e-07
0.000400608 0.000461734 -0.000381274
-2.04167e-06 7.07482e-06 -9.41434e-06
9.56282e-06 1.83992e-06 -4.02947e-05
-0.00102387 -0.00308189 -0.00613632
1.63835e-05 1.3806e-05 -2.62615e-05
-0.000297751 -6.32446e-05 0.00037353
6.27199e-06 1.3933e-06 1.13366e-05
5.24927e-05 -0.000319635 -0.000305151
-9.05582e-05 -6.69916e-05 3.10589e-05
-4.97965e-05 -0.000176852 0.0008957
-0.000161857 0.000116137 -0.000233229
2.83428e-05 -1.30828e-05 -3.0416e-05
0.000504853 -0.00118074 -0.00272457
7.18724e-05 -4.31685e-05 -0.000137055
-5.35609e-05 1.33236e-05 -1.66135e-05
1.38547e-05 2.16803e-05 -2.22217e-05
-0.000157468 -0.000800102 -0.000883006
0.00013602 -6.35733e-05 8.49636e-05
-1.59012e-05 7.39173e-06 6.22434e-06
-5.23614e-06 2.32889e-07 8.08843e-07
1.38935e-05 6.77804e-06 1.23986e-05
-7.04904e-06 -7.85332e-07 5.62963e-06
-0.000337822 -0.000145168 -0.000188994
-4.58534e-05 4.17612e-05 -1.91398e-05
-1.22188e-05 -3.9719e-06 1.05132e-05
-2.66129e-05 -1.60593e-05 -5.2136e-06
-0.000828619 -0.000783288 0.000819024
-0.000907487 -0.000242612 0.000347818
-0.000821913 -0.000248439 -0.00200161
3.45595e-05 3.40243e-05 4.02626e-06
-1.70694e-05 6.49142e-06 1.61607e-05
0.000336762 0.000282663 0.000466107
-0.000626864 -0.00022924 0.00177696
0.000504264 4.36745e-05 0.00122122
2.60911e-05 5.39847e-06 -2.09253e-05
-0.000162218 -0.000159957 -4.37583e-05
1.33382e-05 -1.85617e-05 -2.84205e-05
-0.000170155 -0.000335655 0.000628488
0.000553321 -0.00128325 0.00165591
-0.000247936 -0.000597388 0.000481167
1.28102e-05 1.85409e-05 1.45337e-05
4.99822e-06 -2.22882e-05 -5.27164e-06
-0.000371509 -0.000316183 -4.85952e-05
-1.414e-07 -4.40778e-08 -3.92087e-06
9.69592e-05 7.7993e-05 -0.000227902
4.77719e-05 -3.57824e-05 -3.69284e-05
1.62672e-05 2.42796e-06 -4.84191e-05
8.74903e-05 2.05989e-05 -7.46316e-05
1.96987e-05 1.55259e-05 -3.78171e-05
-5.56686e-07 7.04477e-05 7.59083e-07
6.57803e-06 -4.71544e-07 -1.56002e-05
-0.000312316 -0.000157714 -4.00808e-05
-8.25909e-05 2.99758e-05 5.9021e-05
0.000259775 0.000471362 0.000453903
-4.1138e-05 1.34346e-05 -7.45773e-05
-5.19312e-05 2.70311e-05 2.54317e-05
1.73047e-05 0.000145602 5.54603e-05
-4.78559e-06 -1.5319e-05 5.35458e-06
2.38978e-05 3.45127e-05 3.60005e-05
-4.2905e-06 9.51929e-05 5.39948e-06
2.73473e-06 1.91314e-06 1.36455e-05
3.75773e-05 6.42836e-06 3.99201e-05
0.000103957 9.71595e-06 -1.52147e-05
5.47612e-05 -1.51402e-05 -1.97e-05
1.03003e-05 2.07425e-06 2.68572e-05
0.000165848 4.44689e-05 0.000363002
-3.86159e-05 -2.99239e-05 -5.05099e-05
1.29996e-05 2.61755e-05 -3.54721e-05
2.46504e-05 2.55896e-05 -2.93819e-05
4.10606e-05 -1.75195e-05 1.21412e-05
-0.000160507 -7.21138e-05 -6.53527e-06
-3.12455e-05 0.000188125 0.000100571
0.000411681 -5.61909e-05 -0.000234714
3.08256e-06 -2.00493e-05 -5.82274e-06
7.26008e-05 -4.22516e-05 -3.47049e-05
-0.000114898 -2.72722e-05 0.000107087
-3.46171e-05 0.000252528 -0.000261273
2.95859e-05 3.48522e-05 -1.84265e-05
-1.02117e-06 -2.66978e-05 -2.47819e-05
4.73878e-05 -6.58076e-05 5.05269e-06
-1.24363e-06 -7.2754e-06 -1.25182e-05
-0.000446317 0.000146017 -0.000773682
-2.1943e-05 2.26964e-05 -4.71755e-05
0.000513171 -0.000306287 -0.000538661
-0.000213404 -5.54275e-05 -0.000203829
-5.14043e-05 5.67074e-05 4.40494e-05
-1.83584e-05 9.11756e-06 1.50325e-05
1.16047e-05 5.93035e-05 1.27906e-05
-6.82303e-05 -9.80285e-05 3.25688e-05
-5.94861e-05 -1.14354e-05 -1.24362e-05
2.12338e-06 1.58767e-06 1.37659e-06
-1.29748e-05 -0.000124236 7.61716e-05
4.5133e-08 -3.33268e-06 -1.90655e-06
7.47947e-06 -2.58444e-05 -8.05322e-07
-0.00126818 0.000383337 0.00142756
-0.000163403 -4.976e-05 -0.00018703
1.00316e-05 9.85537e-06 9.83771e-06
-1.88271e-05 6.41826e-06 -1.57466e-05
1.37223e-06 -2.86276e-06 -1.43638e-07
-0.000105486 0.000576658 0.000188907
5.32965e-06 -5.72756e-07 -2.07682e-06
0.000353902 0.000464255 0.000515596
-5.64588e-06 7.17051e-06 6.09085e-08
2.2251e-05 -4.24912e-06 3.33031e-06
-0.000396144 -2.89831e-05 0.0011398
-5.94328e-05 0.00010487 3.58125e-05
-0.000236934 -0.000198305 -0.000152938
-2.17604e-05 3.74564e-05 -2.79311e-05
-0.00139142 0.00202675 -0.000235538
-0.00017193 0.00011498 -3.85332e-05
6.68295e-05 3.88478e-05 -8.49495e-05
0.000736816 0.000101068 0.000269547
0.00234411 0.000315423 0.000946075
8.13405e-05 0.000860443 0.00127578
-1.93234e-05 3.93696e-07 2.0456e-05
1.60876e-05 2.42299e-05 1.03935e-05
8.95895e-05 -7.13427e-05 6.95782e-05
-0.000482966 0.00037899 0.000131885
-0.000378253 -0.000242373 -0.000432938
-9.53655e-06 -6.24823e-05 1.57031e-05
7.34908e-06 3.14319e-05 1.29863e-05
-5.31909e-06 7.50934e-07 -8.00698e-06
3.04606e-05 0.000147811 -0.000291021
-4.38625e-06 -6.59292e-05 2.98386e-05
0.000176023 -0.000251421 -0.000452789
1.63107e-05 0.000122894 -6.86894e-05
7.07144e-05 -0.00011345 -0.000558029
-0.000111022 0.000232008 -5.00293e-05
1.15263e-05 -0.00041339 0.000173285
7.00047e-06 2.51538e-05 2.29463e-05
-0.000527181 0.000203971 -0.000369909
2.9681e-05 0.000104018 6.41312e-05
4.19841e-05 -2.28752e-05 -3.49514e-06
-9.7281e-06 5.69522e-06 9.11894e-06
0.00347126 -0.000621583 0.00335888
-7.98041e-06 1.12884e-05 3.33294e-07
-1.18975e-07 3.6089e-08 6.59179e-08
-0.000904914 0.000862866 0.00197519
-0.00235551 -0.000713554 0.00224182
0.000256577 0.000185821 -0.000239086
-0.000196931 0.000476673 0.000108714
-0.000285399 0.000156409 0.000178655
6.27131e-05 -1.92586e-05 4.32284e-05
0.000149445 2.13679e-05 0.000130006
-8.77429e-07 1.58417e-05 6.63607e-06
-1.98255e-05 1.24121e-05 -2.23764e-06
-1.12621e-05 -2.6844e-06 -2.09272e-05
-0.000117288 0.000342939 9.22456e-06
-2.04364e-05 5.02989e-05 -1.1774e-05
-3.43864e-06 9.80028e-06 6.07022e-06
0.000141142 -0.000180254 0.000367223
-2.74746e-05 1.61669e-05 -0.00024365
1.38164e-05 1.03261e-05 2.53366e-05
2.16967e-05 -2.55205e-05 3.59339e-05
-1.98899e-05 -1.26781e-05 1.46743e-05
2.84488e-05 2.4269e-05 2.69773e-05
2.82647e-06 -1.45512e-05 -4.76983e-06
-1.32094e-06 1.33327e-06 -5.8816e-06
1.33527e-05 -6.18895e-06 -7.86766e-06
-7.03637e-05 -9.88066e-05 2.91412e-05
-2.87764e-05 -0.000106083 5.22476e-05
4.91465e-05 6.98382e-05 -0.000464395
8.34865e-05 -6.60754e-05 -3.84467e-05
-7.05568e-07 4.36707e-07 -4.00734e-07
7.93412e-05 -0.000189275 -0.000103784
-0.000504049 -0.00071575 -0.000462728
-9.9228e-05 0.000118829 -0.000100359
-0.000207355 4.10179e-05 0.000319521
0.0010234 0.000269983 0.00148282
1.36449e-05 1.77678e-05 -2.10164e-05
9.46572e-06 -1.88901e-05 -1.40799e-06
-2.31368e-05 -2.48041e-05 5.36291e-06
-0.00010514 -0.000108461 -0.00022953
7.89439e-06 -7.59824e-05 6.56304e-05
-0.000673944 0.000593621 0.000311946
-0.000241506 -0.00056266 -0.000988926
1.23185e-05 -1.13286e-06 2.12307e-05
-4.36257e-06 7.21103e-06 9.1008e-06
-4.14523e-05 6.93007e-05 2.24906e-05
1.98329e-05 -4.16464e-05 1.97611e-05
8.7795e-06 -3.68427e-06 1.76307e-06
-1.54855e-05 -3.79171e-05 -4.64865e-05
6.06689e-07 -2.04782e-05 -1.76018e-06
0.00475713 -0.00256471 0.00101157
0.00227959 -0.00236303 0.00138436
0.00118185 -0.000396562 0.00258404
1.18841e-05 -6.01663e-06 1.15429e-05
-0.000443982 0.00144998 0.00102476
-0.000471947 -6.17114e-05 0.00023237
1.27398e-08 -1.67646e-05 1.13268e-05
1.46617e-05 1.72098e-05 -1.50795e-05
-2.48422e-06 -3.24202e-06 -7.49578e-08
-0.000458183 -0.00046711 -0.000259915
-3.53603e-05 0.00012192 -0.000105769
-0.00196845 -0.00113693 -0.000271407
2.87801e-05 -2.34739e-05 -8.10181e-06
-2.24311e-06 2.41809e-06 9.85447e-07
-0.000862583 0.000577045 4.55775e-05
0.00106079 0.00073268 0.000167157
-7.16245e-06 -1.63427e-05 2.45634e-07
-0.000116845 7.27989e-05 -0.000429698
-6.04286e-06 1.51524e-06 4.37974e-06
0.000120029 0.000148637 1.7742e-05
0.00238392 0.000123502 -0.00204027
2.81249e-06 -7.44787e-07 5.11865e-06
-3.33836e-05 2.64151e-05 -2.61839e-06
-0.000419552 -0.000269728 0.00049135
4.47274e-05 2.11125e-06 -8.94746e-06
-1.91857e-06 -5.22541e-05 -6.58528e-05
7.86042e-05 -4.95945e-05 4.32447e-05
-5.87171e-05 9.57246e-07 -2.82211e-05
-0.000372676 0.00047218 -0.000189045
-8.0408e-06 -0.000242272 -0.000179375
6.39476e-05 3.72463e-05 -2.78223e-05
-0.00141858 -0.000913423 -0.000702623
0.000120167 -3.99149e-05 0.00072658
-4.35917e-05 2.58666e-05 1.77177e-05
5.82148e-05 -0.000119911 4.16871e-06
-2.63548e-05 -4.37851e-06 -3.64844e-05
1.13156e-05 2.35175e-06 -1.56847e-06
5.87301e-06 -2.08292e-05 1.15847e-05
-1.50698e-05 1.43594e-05 2.79004e-06
-1.67016e-06 -2.5839e-05 1.01792e-05
1.06111e-05 4.27843e-05 9.94184e-06
3.83641e-05 2.70126e-06 -4.20239e-06
-5.74105e-06 -6.23244e-06 3.53553e-07
0.000490446 -0.00041683 0.000683409
2.92062e-06 -1.37802e-05 9.78215e-06
-2.09362e-05 -0.000222482 -8.31517e-05
-1.68126e-05 -0.000123613 0.000410503
-0.000547585 0.00166484 0.0010066
-2.4813e-05 5.15646e-06 -3.40777e-05
-0.000145234 9.65273e-05 0.000258462
5.24793e-06 7.26095e-06 5.88044e-06
9.52468e-06 3.59168e-06 7.41352e-06
0.000102867 -0.000153104 0.000280116
-4.72985e-06 1.90746e-06 -1.58171e-06
-3.28788e-06 9.88551e-06 4.26727e-06
-3.24478e-05 -2.16927e-05 2.96562e-05
0.000215352 0.000239613 -0.000408456
-1.1856e-05 -2.19535e-05 2.23893e-05
0.000302559 -0.000533699 -0.0016507
0.000126244 -0.00011075 0.000132861
-0.0010355 0.000565296 0.000983248
-0.000194871 -0.000204411 -0.000994856
-7.42143e-05 -0.000257563 0.000172112
-1.53934e-05 5.06093e-05 1.58304e-05
-4.36929e-07 6.42633e-06 -3.24858e-05
0.000207227 -0.000128094 -9.4012e-05
0.000187751 3.67211e-05 -3.63213e-05
-2.8775e-06 4.11912e-05 -6.57119e-05
-9.58812e-05 1.95622e-05 -0.000135776
0.000411008 1.3015e-06 -0.000161731
3.52461e-05 -2.71957e-05 -1.87695e-05
-1.76848e-05 -4.26415e-06 5.64722e-05
0.000118119 0.000118091 0.000145192
-0.000270509 3.51692e-05 3.22689e-05
-0.000212173 0.00029388 -0.000244531
-0.000331322 0.000461847 -0.0001802
8.83613e-05 -0.000668366 -0.000128092
2.82033e-05 -2.77371e-05 3.63489e-05
8.65597e-06 -1.06729e-05 6.71145e-06
9.28833e-07 -5.73881e-06 -0.000583132
-2.70023e-05 1.57024e-05 -1.83825e-05
-5.62907e-05 0.000313522 -0.000883681
-1.49975e-07 5.95964e-05 6.41687e-05
-2.40493e-05 -3.68346e-05 -2.09511e-05
-1.84689e-05 9.65408e-05 -8.21557e-05
0.00323487 0.00109282 0.000701443
7.33483e-05 1.51121e-05 0.000123893
3.01971e-05 -1.63443e-05 5.95941e-06
-1.42717e-06 -2.95868e-05 7.06146e-05
-2.01558e-05 -3.36911e-06 1.94375e-06
1.9979e-05 -2.26664e-06 4.53805e-06
4.43061e-05 -1.02919e-05 -3.67525e-06
-1.82107e-06 -6.96817e-06 -2.18599e-06
-0.000299013 0.00100037 -0.000321203
-0.000764309 0.000138309 0.00143001
-1.342e-05 -1.19877e-05 -5.3611e-06
-2.83531e-05 -2.25216e-05 -1.39771e-05
-2.98004e-06 -1.06459e-05 7.72085e-07
2.43968e-05 -5.62319e-05 -3.66617e-06
-3.92096e-06 -4.13652e-05 2.26722e-05
0.00104906 0.000595552 -1.86351e-05
0.000222412 0.000137548 3.85569e-05
-0.00034398 0.00117786 0.00272498
5.03864e-05 -0.000208858 3.84545e-05
1.44341e-05 -3.65287e-06 1.84947e-06
1.19339e-05 1.49327e-05 1.78584e-05
-1.34539e-06 1.54517e-05 0.000338974
-1.26239e-05 4.95462e-05 -9.97621e-05
2.93922e-05 9.02307e-05 -0.000125067
1.23036e-05 1.68068e-06 -4.72891e-06
0.000149239 0.000142424 0.000135404
4.80726e-05 8.0465e-05 -6.36269e-05
-2.23247e-05 -0.000132884 -0.000103898
3.89957e-05 -0.00108932 -0.000978166
3.93308e-05 3.84318e-05 9.2285e-06
-0.000190744 0.000145244 -3.8979e-05
0.000814774 -0.000686139 0.00101728
0.000164655 6.27001e-05 -3.20114e-05
-4.84363e-05 -1.60959e-05 -5.73628e-05
0.000261778 0.00109644 -4.4104e-05
1.07892e-06 -5.0683e-08 -9.95752e-07
2.23429e-05 -0.000103709 0.0001937
-0.000160629 0.000175673 0.000566352
-5.01275e-05 -0.000167848 -0.000107437
0.000194218 0.000174283 0.000228127
1.74151e-05 2.4585e-06 -6.28737e-06
-4.25413e-05 3.33842e-05 1.42932e-05
-0.00201704 -1.36557e-05 -0.00463915
9.02693e-06 3.8142e-05 -8.73013e-06
-0.000693773 -0.000584676 -0.00199141
1.62723e-05 0.000174467 8.37757e-05
9.67166e-08 3.14066e-06 -2.3503e-06
-0.000169148 0.000177408 0.000202933
4.69365e-06 -5.25392e-07 1.29207e-06
-0.000104222 -0.000152343 9.22383e-05
-1.58447e-06 -5.71186e-06 -1.24863e-05
-5.16626e-05 2.93622e-06 -1.74836e-05
-1.19144e-05 0.000135418 2.0773e-05
-1.46275e-05 -3.57647e-05 1.26355e-05
-0.000104333 -0.000156605 0.000154397
9.76472e-07 -1.96469e-07 -3.07238e-07
-0.000135552 0.000362932 -0.000751928
0.000205277 -0.000164913 -0.00183693
-0.000470122 0.000485618 -0.00132071
3.91839e-05 -2.59462e-06 0.00010806
-1.21068e-05 6.88174e-06 -7.05658e-06
0.00117335 -0.00042447 -0.00155509
1.07591e-05 -3.20219e-06 -5.53473e-06
-0.000154743 -0.00067301 -6.63499e-05
0.000238786 6.90472e-05 -0.000121529
0.000177448 -8.60876e-05 -0.000722736
-1.33474e-06 -2.97993e-06 1.45451e-06
1.64487e-05 -3.96244e-06 7.1298e-06
-2.07828e-05 1.13338e-05 -1.03714e-05
3.03302e-05 4.51494e-05 1.94632e-05
4.04043e-05 -6.63312e-07 -3.539e-05
-8.5831e-07 1.93451e-05 -1.62336e-05
3.65981e-06 -1.58167e-05 5.12162e-07
0.000231879 -0.000374273 -0.000332709
-2.10786e-06 7.81851e-06 7.47082e-07
4.77587e-05 -0.000485652 0.000608476
-0.000134344 0.000333491 0.000961691
-0.000616107 0.00109094 7.92608e-05
-0.000239337 0.000963449 0.000718649
-0.000164146 -0.000115439 -0.000559023
7.03222e-06 -9.47386e-05 -7.27041e-05
1.29094e-05 8.52621e-05 -7.60972e-06
0.00103024 0.00329544 0.000730828
8.11297e-05 3.60704e-05 5.8427e-05
0.0024238 0.00376056 -0.00116902
-0.00245707 -0.00123542 -0.00284385
7.16206e-05 -2.77916e-05 1.98514e-05
-0.00198879 0.00142864 0.000276534
3.92181e-05 -4.87076e-05 -4.54541e-06
-9.80007e-05 0.0008909 -0.000400102
-3.9882e-05 -8.99293e-05 0.000116201
-3.91145e-06 1.70702e-06 -3.61742e-06
0.00125795 -0.000363205 -0.000368459
-0.00019785 4.31332e-05 -0.000164169
3.93486e-05 6.34018e-05 2.09087e-05
0.000268357 -0.000457966 -0.000404163
0.00084576 0.00128159 -0.000729995
0.000933965 0.000768576 0.00194153
-1.74155e-05 0.000491074 -0.000213426
0.000637649 0.000685183 0.00047906
-0.000214707 4.0217e-05 -0.000128198
3.1052e-05 -1.06859e-05 1.95856e-05
0.000327337 -0.000266292 -0.000850986
-8.16156e-06 -2.4639e-05 3.4178e-05
-5.73359e-05 5.06675e-05 -2.50492e-05
0.000941865 -0.000628189 -0.00105112
9.66101e-05 0.000210015 7.16691e-05
-8.06989e-05 2.32463e-06 7.10001e-05
2.65506e-06 1.83675e-07 2.07575e-05
1.48297e-05 -1.57932e-06 1.88519e-06
-3.74658e-05 8.26246e-05 0.000101611
6.10447e-05 -1.73263e-05 -1.00711e-05
0.00014797 -0.000230714 0.00108116
-0.000522206 7.05969e-05 0.000917135
0.00042568 -0.00016673 6.70147e-06
0.000450989 0.000382298 0.000720411
0.000429885 -0.000408273 -0.00086085
-9.93021e-06 2.38207e-05 3.47074e-07
-4.56538e-05 3.22645e-05 9.62905e-06
0.00047132 -0.000321077 -0.000799834
6.76565e-05 3.57132e-05 -2.30183e-05
-1.02702e-05 4.05417e-05 6.31023e-05
-0.000390135 0.00049249 0.000678639
-2.38694e-05 -4.88829e-05 -0.000155998
1.7724e-05 0.000136285 -6.66556e-05
-0.000240828 -0.000567789 0.00110592
-0.00133461 -7.47803e-05 -0.000154517
-4.41993e-06 8.44926e-06 1.83575e-06
3.8873e-06 -3.31118e-05 2.29066e-06
-5.14989e-06 3.18061e-05 -3.30469e-06
1.59024e-05 -8.93993e-06 1.90078e-05
-0.00109213 5.38787e-05 0.000654158
0.000687399 -2.31855e-05 -0.00060891
4.11307e-06 6.08134e-06 6.38658e-06
7.47351e-06 7.37185e-06 9.75294e-06
0.00153803 -0.000448388 -0.00124062
2.62197e-05 -0.000119647 0.00111954
-0.000258656 1.68407e-05 0.000184978
0.000501488 0.000870587 -0.000258738
8.89036e-06 -2.12485e-06 5.14192e-06
8.86265e-06 1.18691e-05 1.01804e-05
9.97787e-06 3.74911e-05 1.92467e-05
4.65559e-06 1.05177e-05 1.42145e-05
-2.73273e-05 1.84696e-05 4.58841e-05
0.000767885 0.000385187 -0.000374167
0.000241198 7.66913e-05 -0.000155554
0.000451681 0.000548272 -0.0016846
0.0006143 0.00036159 -0.000212216
-0.000963064 -4.72481e-06 -0.000786352
1.89569e-05 4.6227e-05 8.27213e-06
-9.17274e-06 -3.58118e-05 -1.24757e-05
-0.000498512 0.000343389 -0.000209712
-5.48527e-05 2.96838e-05 1.93917e-05
0.000820561 0.00139343 -0.00109892
-4.66676e-05 1.79903e-05 1.75238e-05
5.09192e-05 0.000329611 0.00133324
-0.0054003 0.00106996 0.00536474
4.3482e-05 3.2625e-05 2.23732e-05
2.87253e-05 -4.0278e-05 -1.7886e-05
1.99875e-06 -3.39749e-05 7.30609e-06
2.76579e-05 8.92224e-07 3.95852e-06
0.000119626 0.000175144 -0.000201826
3.1001e-06 -1.19145e-06 -2.57255e-06
5.5249e-08 -6.39492e-07 1.29505e-05
-2.42715e-05 -0.000156806 1.98199e-06
-0.00222344 0.00231515 -0.00129595
-5.23876e-05 -5.58724e-05 6.35486e-05
-3.3185e-05 3.29253e-05 5.46343e-06
-7.08696e-05 -5.31351e-05 1.77809e-05
-4.78902e-05 -7.39623e-06 4.52592e-05
-0.000163421 6.233e-05 3.4314e-05
-2.12038e-05 -3.76032e-05 7.33866e-06
0.000144613 3.42108e-05 0.000882839
-1.085e-05 5.49593e-06 -1.20508e-06
0.000110114 6.86731e-05 -0.000160282
-5.33731e-05 -0.000365966 0.00114351
0.000344495 0.00023207 7.00297e-05
0.000223162 -0.000155456 -3.66327e-05
0.000178711 0.000993244 -0.00174284
8.68461e-05 -0.000377568 -4.20605e-05
6.96073e-06 2.87077e-06 1.81845e-06
-6.356e-05 -0.00010805 4.76538e-05
8.80638e-05 0.00035565 -0.000501326
1.11454e-05 -3.69887e-06 1.64558e-05
0.000299052 0.000109959 -0.000131026
6.79417e-05 -2.98589e-05 7.28901e-05
1.01562e-05 -6.40799e-06 7.79819e-06
-5.04169e-05 2.91147e-05 0.000108507
1.82962e-05 -2.96764e-06 -8.31788e-06
-5.76099e-06 7.04761e-07 8.63639e-07
-2.42199e-05 -0.000125141 0.00268709
0.000134892 0.000115933 0.000113011
0.000242263 -4.73149e-05 -0.000120725
-9.79288e-06 1.23045e-05 -1.62507e-05
0.000140435 -0.000193045 -0.000101673
-6.31834e-05 -1.3478e-05 0.000105226
-5.95278e-05 0.00013958 -4.64198e-05
1.15097e-06 -2.68716e-06 1.06005e-06
0.000150734 0 -5.02967e-05
-2.17715e-05 0 0.000650876
-1.99744e-05 0 0.000471326
-1.83069e-06 0 -6.03812e-06
-0.000125146 0 -8.9988e-05
-0.00201052 0 -0.00101048
-1.57316e-06 0 3.39318e-06
-4.50764e-05 0 -6.18827e-06
-0.000142742 0 0.00582296
-2.20707e-05 0 0.000140936
0.000391701 0 0.000652843
0.00108936 0.000793106 0
-0.00041742 -1.94015e-05 0
0.00017864 0.000159214 0
-0.00016989 0.000245522 0
0.00243646 0.00204721 0
-8.8925e-05 -2.14716e-05 0
0.00092448 -0.00313192 0
0.000105326 -0.000557446 0
0.000203178 1.72525e-05 0
-1.32503e-05 -4.19431e-05 0
-1.8127e-05 -6.71914e-07 0
-4.31596e-05 -0.000137401 0
-0.000123075 -0.000505953 0
-0.000723135 -4.35229e-05 0
1.56594e-05 -0.000113316 0
-4.62328e-05 0.000178678 0
-0.00015206 0.000115807 0
-0.000115424 8.05284e-05 0
-0.000104985 -0.000205913 0
-0.000287645 0.000508714 0
-1.36453e-05 1.41083e-06 0
-0.000334129 -0.00073513 0
4.81146e-06 0.000105822 0
1.65239e-05 8.30931e-06 0
6.42644e-06 1.45594e-05 0
7.6031e-05 -3.24013e-05 0
9.64028e-05 8.91331e-06 0
1.07105e-05 1.15422e-05 0
-0.00112266 9.05394e-06 0
3.13921e-05 -6.43973e-06 0
-0.00105253 0.000111045 0
-0.00280411 7.11572e-05 0
1.30424e-05 1.74347e-05 0