<?xml version="1.0"?>
<VTKFile type="UnstructuredGrid" version="0.1" byte_order="LittleEndian" compressor="vtkZLibDataCompressor">
 <UnstructuredGrid GhostLevel="0">
  <Piece NumberOfPoints="1877" NumberOfCells="1877">
   <PointData>
    <DataArray type="Float64" Name="Elongation" NumberOfComponents="3"/>
-8.80289e-07 -2.48535e-06 -5.495e-06
-2.69457e-08 3.40684e-10 -2.48881e-05
-4.07491e-07 3.94329e-07 8.06937e-06
1.13378e-06 -6.96131e-07 1.06015e-05
-3.54727e-05 4.76093e-05 -2.79431e-05
7.99504e-06 3.52651e-05 2.96319e-05
-8.59736e-06 -3.49594e-05 2.12808e-05
6.941e-06 2.0017e-05 1.03908e-05
1.45856e-05 0.000124908 -0.000156392
2.97612e-05 3.22319e-05 3.66226e-05
-2.90067e-05 2.22195e-07 2.26955e-05
-1.5201e-05 5.30515e-05 5.57692e-05
6.88973e-05 2.07838e-05 -4.58751e-05
6.16916e-05 4.45738e-05 7.97277e-05
-1.26487e-06 1.81673e-05 -1.55941e-05
-8.74024e-08 -7.06245e-07 -2.65686e-07
1.37093e-05 2.98586e-06 -8.28576e-06
5.5218e-05 3.68188e-05 -0.000170153
-3.59404e-06 2.2386e-05 -2.42496e-05
-1.63649e-05 2.29675e-05 4.7512e-05
-1.03241e-05 8.96495e-07 1.83687e-05
3.94591e-05 3.23956e-05 8.69536e-06
1.69485e-05 -1.29587e-05 -1.76183e-05
6.06908e-05 -7.06256e-07 1.3386e-05
-3.13996e-05 -8.25922e-06 3.4985e-05
-0.000128638 1.23796e-05 8.1618e-05
5.56429e-07 4.4793e-05 4.01334e-05
-3.44938e-05 -5.46007e-05 -4.7938e-07
-3.08598e-05 -5.26173e-06 2.36767e-05
-1.95268e-05 -2.19362e-05 -4.61748e-06
4.18581e-06 6.87602e-06 6.95883e-06
-0.000151735 0.000278262 -0.000251742
-0.000174958 0.000219271 -0.000396742
-4.71442e-06 -2.5976e-06 1.03273e-05
-1.03577e-05 4.23689e-05 5.62765e-05
-6.25947e-05 2.28318e-05 -9.64237e-05
-1.7426e-05 2.25793e-05 5.1575e-05
1.80586e-05 -3.81867e-05 -4.81546e-05
6.74774e-05 -5.46281e-06 6.44001e-05
1.32716e-06 2.63659e-06 3.33142e-06
-0.000679503 7.12194e-05 0.000469481
-0.000172903 -0.000452825 -0.000255023
0.000143107 0.000103061 0.000184259
-0.000153339 0.000339758 -0.000212923
-1.49451e-05 -1.20251e-05 3.21803e-06
-1.78766e-05 -3.58368e-05 -4.50044e-05
5.22045e-05 -6.81085e-05 3.17638e-05
-0.000241916 0.000156129 0.00036997
6.05578e-05 5.43875e-06 6.87322e-05
2.16053e-05 -1.21992e-05 -3.91931e-05
3.38486e-05 -7.80858e-05 0.000119212
-0.000123212 0.000211317 0.000104214
-4.1788e-05 7.2763e-06 3.38857e-05
-4.41803e-06 3.85256e-06 9.84618e-06
1.77498e-05 -7.56332e-05 -3.44085e-05
0.000206599 -7.65386e-06 -0.000280227
2.74348e-05 6.48137e-05 -5.6988e-05
1.78279e-06 -5.66926e-05 3.67478e-05
-1.92718e-05 -5.05194e-05 2.79054e-05
0.000172615 7.87084e-05 0.000237969
4.04512e-05 0.000267219 -0.000220875
0.000260475 0.000226979 0.00037511
2.50453e-05 3.04193e-05 -8.82121e-06
1.76746e-05 9.04676e-06 1.88446e-05
1.18605e-05 5.66861e-05 5.03621e-05
0.00018573 5.73931e-05 0.000256311
4.0184e-05 1.29862e-05 2.73956e-05
1.12925e-05 -2.86961e-06 -7.39308e-06
-7.79872e-05 -3.81283e-05 -1.56344e-05
5.60888e-06 -2.13309e-05 -1.39736e-05
3.76074e-06 1.0919e-06 -4.08324e-06
3.50108e-05 8.04753e-06 -1.08658e-05
-2.20738e-05 0.000188918 -0.000170382
-0.00024344 9.46671e-05 0.000280622
-0.000347848 -0.000143689 0.000363082
8.66333e-05 -6.18065e-05 0.000114152
0.000109574 5.76569e-05 0.000131191
-8.44238e-06 9.05971e-07 -1.1217e-05
-2.74314e-05 -1.0601e-05 2.8425e-05
-5.07125e-05 -1.08122e-05 -4.49233e-05
-2.43967e-05 -5.4354e-05 2.51674e-05
7.22083e-05 6.04573e-05 0.000100709
-3.6824e-05 2.23025e-05 1.92597e-05
1.36141e-05 -0.0001064 7.21754e-05
1.0686e-05 2.57585e-05 1.86842e-05
-9.90314e-06 9.84908e-06 4.97008e-06
0.000195203 -0.000176223 -8.96543e-05
8.52299e-05 1.26482e-05 4.94258e-05
6.7327e-06 -1.65942e-05 4.25972e-06
1.30014e-06 -7.18519e-06 -4.56772e-05
-3.5372e-05 -4.76894e-05 0.000128303
0.000132466 5.1723e-05 0.000211278
2.80693e-05 0.00027867 -0.000226082
5.22661e-06 3.77569e-05 3.28582e-05
0.000114251 0.000147855 -0.000202489
6.18597e-06 2.68264e-05 1.63219e-05
-3.96335e-05 -4.06196e-05 1.79819e-06
-0.000232397 1.29573e-05 0.000190961
-4.26989e-06 6.01575e-05 5.5892e-05
-7.44956e-06 1.19822e-05 9.4292e-06
-4.59591e-05 -9.07079e-06 3.30949e-05
0.000164591 -0.000187159 0.000178708
2.25438e-05 2.9254e-05 3.07813e-06
-9.89543e-06 1.83441e-05 5.07695e-06
-1.94875e-05 1.35371e-05 2.93408e-05
2.63406e-05 -8.98298e-06 3.28552e-05
-1.18887e-05 1.3924e-06 -3.06467e-05
-7.43326e-05 8.40709e-05 0.000418206
0.000118483 0.000121264 -0.000159657
5.14083e-05 1.43509e-05 2.95786e-05
-4.39274e-06 1.34862e-05 1.85962e-05
-1.51346e-05 8.21855e-07 -1.23502e-05
0.000165628 0.000212725 -0.000121848
0.000106665 0.000126478 0.000179978
-1.14699e-05 -3.26035e-05 -1.95633e-05
-9.65006e-06 -4.62076e-05 8.46186e-05
0.000141426 9.39941e-06 0.000539236
-2.32502e-05 -1.77196e-05 2.083e-05
1.61466e-05 -2.24204e-07 -5.5376e-06
0.000124573 -6.40967e-05 0.000227462
0.000144483 0.000181715 0.000369719
5.85003e-06 -6.51883e-06 0.000184253
1.2513e-06 -2.13316e-06 1.23687e-05
-7.84787e-07 -9.43483e-06 -6.16063e-06
2.35069e-05 -5.72167e-08 3.51187e-05
5.70598e-06 1.02581e-05 3.90064e-05
1.48547e-05 2.28949e-05 1.75348e-05
-6.2387e-05 -0.000170783 0.000223029
7.03473e-05 9.39926e-05 0.000172939
-5.30032e-06 6.6506e-06 9.82306e-06
9.27187e-06 -1.85752e-05 2.12552e-05
7.24613e-05 -0.000114957 0.000181656
1.42944e-05 -0.000267844 -0.000333099
1.03298e-06 1.39559e-06 1.94032e-05
-8.8683e-05 -7.38455e-05 2.68664e-05
1.69249e-05 2.94185e-05 2.30199e-05
5.76878e-06 -1.4664e-05 -7.73467e-06
5.43467e-07 2.39477e-07 -3.2584e-05
0.000420231 -0.000502167 3.46666e-05
7.2491e-06 -1.64691e-05 3.38231e-05
-3.06599e-06 -1.87584e-06 2.84994e-06
5.85294e-06 -7.62973e-05 5.83296e-05
5.97519e-06 8.26595e-07 -1.28262e-05
1.73123e-06 -5.25458e-05 0.000201101
-2.3243e-05 7.67365e-05 0.000296503
3.30093e-07 -4.67788e-06 1.34146e-06
-2.54729e-05 -4.2448e-05 5.50895e-05
1.30977e-05 2.73758e-05 3.34137e-05
-1.36722e-06 5.7277e-07 -5.84009e-06
5.6139e-06 -3.47249e-05 3.39509e-05
-3.03733e-05 9.61666e-06 3.3892e-05
-1.10991e-05 1.72906e-05 -6.41592e-05
1.41062e-05 -8.77767e-06 3.80234e-05
-3.23046e-05 -0.000161416 -0.000292346
-0.000436974 -0.000922811 -0.00164722
-2.58371e-05 6.20711e-06 1.35731e-05
-1.23712e-06 -1.32386e-05 2.80744e-06
9.65687e-06 -8.31692e-06 3.10207e-06
-5.15499e-06 8.32852e-06 -9.48092e-06
1.98346e-05 3.80028e-05 3.08959e-05
1.08706e-05 -6.7117e-06 6.0893e-07
-6.69863e-06 3.5711e-06 1.18599e-05
-1.95991e-05 5.37312e-06 4.71126e-05
3.14622e-05 2.79077e-05 1.1677e-05
3.9272e-05 2.43584e-05 -8.65379e-05
0.000151284 9.82659e-05 5.82609e-05
0.000238791 7.31667e-05 0.000114597
1.65097e-05 -1.48413e-05 3.89641e-06
-1.235e-08 2.02645e-07 -1.24268e-06
-2.23153e-05 0.000142223 4.57803e-05
4.22232e-06 3.47998e-06 -4.38261e-05
1.01729e-06 -4.3422e-06 2.73737e-05
-6.98595e-06 -2.02395e-05 1.17234e-05
-1.65616e-05 5.70395e-06 1.22296e-05
-3.76324e-05 -4.08016e-06 -4.55858e-05
-2.3198e-05 -2.88666e-05 2.20093e-05
1.73782e-05 -4.78225e-06 -1.98445e-05
1.21666e-05 9.84418e-06 -2.80534e-05
2.18285e-05 -7.97689e-05 1.14153e-05
5.13223e-06 -6.3678e-06 -9.94181e-07
1.20117e-06 7.34445e-07 8.15339e-07
-2.2922e-06 6.51044e-06 5.96221e-07
6.30296e-05 -5.60067e-05 -2.09384e-06
1.39532e-05 -4.31309e-06 -3.09607e-05
3.60356e-05 4.72064e-05 0.000136947
9.39331e-07 5.09788e-05 -8.54167e-05
7.44873e-05 4.55173e-05 5.26575e-06
7.62508e-05 4.80109e-05 7.55036e-05
-0.000164659 9.77399e-05 -0.00016369
5.82588e-05 -7.61036e-05 4.63708e-05
0.000537292 -2.70352e-05 1.96804e-05
-1.5813e-06 -5.36161e-06 -1.02073e-06
-3.95663e-05 1.09561e-05 1.48812e-05
5.18338e-06 -5.75361e-05 -2.51506e-05
2.92179e-05 -2.97988e-05 -2.24607e-05
2.74632e-05 -1.32601e-05 2.02829e-05
3.03304e-05 2.79727e-05 -1.96262e-05
-3.2901e-06 -5.51718e-06 -1.68397e-05
-7.7759e-06 -1.5717e-05 1.88349e-05
2.39637e-05 1.40118e-06 -2.6373e-05
-4.2087e-05 5.79703e-05 8.77956e-05
1.0274e-05 5.88071e-05 -9.1922e-05
1.12221e-05 -2.26421e-05 -1.5719e-05
-1.76884e-05 1.39869e-05 3.1969e-05
-1.98989e-06 3.60575e-05 -3.34361e-05
-4.08923e-05 8.42818e-06 -4.01957e-05
-2.11685e-05 -4.20149e-05 -1.40254e-05
6.96213e-05 -2.94007e-05 9.00836e-05
8.7365e-05 -3.14493e-05 6.93808e-05
-0.000146962 -0.000106938 0.000263865
-0.000170282 -0.000141545 -0.000232598
4.12022e-06 -1.85676e-05 -6.03918e-05
2.84928e-05 0.000213989 -0.000367275
0.000340222 -0.00011157 0.000100557
-0.00013962 4.68369e-05 -1.59276e-05
3.14302e-05 1.03928e-05 -5.39062e-05
2.11943e-05 -2.04382e-06 3.53793e-05
6.33653e-05 -4.14985e-05 5.56889e-05
-9.57052e-06 -1.4787e-06 1.12553e-05
-0.000196571 -0.000126078 3.00929e-05
3.26602e-05 -2.02108e-06 3.1937e-05
-0.000114509 9.95148e-06 6.8627e-05
4.64305e-08 -4.7026e-05 -4.35921e-05
-7.4399e-06 0.000247521 -0.000198044
-9.17677e-05 0.000117582 2.10948e-06
-0.000122128 9.62601e-05 -3.17985e-05
-1.44552e-05 3.10254e-06 3.02238e-05
2.55304e-05 -3.30916e-06 4.02884e-05
5.09981e-06 -1.1168e-05 1.02473e-05
1.15141e-05 1.82615e-05 2.24741e-05
-4.17461e-06 4.49077e-05 3.38583e-06
-6.63187e-06 6.41884e-06 1.35498e-05
-0.000130996 0.000133731 -9.42603e-05
-2.52867e-05 3.33833e-05 -9.59592e-06
-1.70173e-05 -3.33175e-05 -6.08109e-06
4.77221e-06 -2.34605e-05 2.35396e-05
3.11553e-05 0.000150353 -0.000191129
0.0001684 -4.368e-05 -5.44306e-05
4.6949e-06 4.83048e-05 -2.11473e-05
-0.000154891 7.18341e-05 0.000121908
-0.000193364 0.000223201 0.000197031
-8.804e-06 -1.83899e-06 5.41899e-06
2.05158e-06 -1.3995e-06 7.00328e-07
-5.50795e-07 -2.09728e-07 2.01148e-06
4.47164e-05 3.62019e-05 0.00012964
-5.67426e-05 5.03694e-05 9.66261e-05
1.55678e-05 0.000185646 5.77048e-05
-0.000329503 -0.000136654 0.000394227
-5.12002e-05 0.000137157 0.000164847
0.000108745 -3.81743e-05 5.90968e-05
3.48237e-06 2.61547e-06 -1.83183e-06
-3.46534e-06 -1.0911e-05 -1.01787e-05
2.8771e-06 -4.23777e-05 -2.37314e-05
-1.23477e-06 -0.000112742 0.00090861
2.56511e-05 -0.000355198 0.000191861
9.49936e-05 -2.50815e-05 -9.78396e-05
2.05089e-05 7.81932e-05 0.000125627
-2.97758e-06 -1.43774e-06 4.50369e-06
-1.42681e-05 -5.75628e-06 2.77748e-06
0.0002193 0.000122715 -0.000375181
-5.7752e-05 -6.52356e-06 -0.000113117
-6.85537e-07 1.13084e-05 -8.44718e-06
7.09237e-08 -0.000126421 -0.000138092
8.24168e-05 9.67976e-06 2.75516e-05
-5.91553e-06 3.63753e-05 2.2116e-05
-4.7733e-07 2.86092e-07 2.11781e-07
7.79035e-06 -2.20407e-06 3.53848e-06
-4.94417e-06 1.80447e-05 2.18549e-05
-4.35612e-06 9.53577e-06 2.68338e-06
-5.48847e-06 -1.05312e-06 -3.82489e-06
-4.60215e-06 -9.89093e-06 -1.27477e-05
2.26812e-06 -1.06626e-06 -2.67446e-06
2.05715e-06 -2.99056e-08 2.61171e-06
-4.05396e-05 1.08746e-05 -1.55686e-05
2.91043e-05 9.68193e-05 -5.58224e-05
1.29173e-05 -6.22487e-06 -9.42733e-06
1.49466e-05 4.33281e-05 2.85204e-05
-6.59172e-08 2.04228e-06 -3.75441e-06
-2.53263e-06 -8.9978e-06 -1.5291e-05
-1.26293e-05 -2.63773e-06 3.3971e-06
9.95852e-06 5.53221e-06 -1.48637e-05
1.22886e-06 -1.10401e-07 3.6675e-06
1.23856e-05 2.7437e-06 -1.9708e-05
-1.03685e-05 1.48634e-05 5.78802e-05
-2.29835e-05 9.73915e-06 -2.98691e-05
-1.12474e-06 -2.8523e-07 4.2418e-06
1.33192e-05 -2.02784e-05 -3.37515e-05
-2.32792e-05 -3.80855e-05 2.9932e-05
1.34406e-06 1.06816e-05 -7.77274e-05
-7.35068e-05 -1.80776e-05 4.50744e-05
3.85484e-06 1.89314e-06 -3.41523e-07
-4.74607e-06 5.85729e-07 8.79417e-06
-9.99136e-07 1.14291e-05 1.12436e-05
1.41261e-05 -1.50369e-05 1.58939e-06
-1.43275e-06 -8.46359e-06 6.22703e-07
-2.17504e-05 8.50174e-06 -4.69871e-06
2.8551e-05 2.64303e-06 1.97176e-05
-2.38934e-06 1.77615e-05 -1.84965e-06
6.49354e-05 -7.38935e-05 3.03576e-05
1.05259e-05 1.8863e-05 3.93757e-05
-7.37022e-07 7.19158e-06 -8.48133e-07
2.50687e-06 2.65147e-05 -1.40259e-06
-1.46762e-05 3.47148e-05 2.12492e-05
-6.08937e-06 4.81649e-06 -4.15514e-06
2.86612e-05 2.17177e-06 9.0846e-06
9.21891e-06 3.57998e-06 1.05329e-05
6.34025e-05 1.04887e-05 0.000125736
1.62809e-05 -1.27367e-05 -2.587e-05
4.11661e-06 4.47133e-06 -7.58393e-06
8.69556e-06 9.58263e-06 3.65702e-06
4.9111e-06 5.02805e-05 4.27493e-05
3.09727e-05 4.09132e-05 4.99699e-05
-2.28683e-05 -4.4961e-05 -5.34219e-06
2.56587e-05 5.90893e-05 -1.88842e-05
-6.5392e-06 2.3752e-05 1.88799e-06
-5.62924e-05 -3.48562e-05 4.92461e-05
-0.000149677 1.5735e-05 0.000159136
-2.39725e-06 -9.47871e-06 -1.85421e-06
3.32852e-05 6.90167e-06 -2.49588e-05
3.58853e-06 2.45861e-06 3.19746e-06
2.29078e-05 -5.65124e-05 -7.90403e-06
-1.27183e-05 -2.58972e-05 -9.08525e-07
4.9821e-05 -7.15739e-05 -5.95194e-05
1.5769e-05 1.47856e-05 -2.35162e-05
-2.02435e-05 1.51503e-05 2.73269e-05
-1.43711e-06 -1.09841e-05 4.35834e-06
3.74339e-06 -1.21794e-05 1.71179e-06
2.48291e-07 1.12723e-07 -4.48098e-06
3.17374e-05 -1.54296e-05 -3.17712e-06
-3.56701e-06 7.23744e-06 1.14559e-06
-4.92543e-05 5.36401e-05 -2.20743e-05
8.67117e-07 3.64614e-06 9.00435e-06
1.76914e-05 -5.50871e-06 -1.35174e-05
-3.23224e-05 2.74483e-05 -8.95818e-06
0.000106404 -0.000133906 -0.000235032
-0.000100527 5.74123e-05 -0.000214204
-2.1158e-06 -2.79805e-06 -2.30331e-07
-0.000237455 6.31651e-05 -0.000144363
-4.17772e-05 4.80068e-06 1.43712e-05
1.06422e-05 9.00933e-06 -1.45736e-05
4.25626e-05 -6.25284e-05 7.36057e-05
1.5687e-07 -3.18965e-06 2.59861e-06
-2.04755e-06 4.45825e-05 3.56119e-05
8.61714e-06 -4.93908e-06 -1.63312e-05
1.56429e-05 3.16821e-05 -8.2613e-06
0.00021971 6.70793e-06 2.42951e-05
-0.000176086 0.000186487 -0.000281528
-2.84632e-05 -1.61288e-05 2.91133e-05
-8.32153e-06 6.63987e-05 6.64405e-05
6.02384e-05 -6.41796e-05 -0.000104189
-1.52773e-08 -5.47225e-09 -9.94845e-09
-8.60933e-05 7.26943e-05 -0.000263522
-2.08643e-05 7.20914e-06 8.85713e-06
-1.12916e-05 -1.39693e-05 -2.61756e-05
3.21459e-05 2.6476e-05 -1.39814e-07
-8.58824e-06 -1.80506e-06 1.94735e-05
7.99724e-06 2.34149e-06 -1.52266e-05
-1.88398e-05 8.89135e-06 1.01556e-05
5.81546e-05 -4.12807e-06 3.36348e-05
-1.66813e-06 -1.67948e-05 -1.45859e-05
-0.000158285 0.000154276 0.000151623
1.59533e-06 -3.50414e-06 2.28609e-06
5.25881e-06 -2.61826e-05 1.902e-05
-3.19068e-05 -7.06178e-06 2.5907e-05
0.000156316 -6.86046e-06 2.33682e-05
-7.75982e-05 -3.1615e-05 1.36293e-05
7.16456e-07 7.93868e-06 -5.36035e-06
0.000125109 1.69548e-05 6.13733e-05
-1.5849e-05 0.000122144 9.0535e-05
8.72242e-05 9.64968e-05 -3.97923e-05
-8.03163e-06 4.51203e-05 2.84899e-05
0.000189534 0.000287328 -0.000265049
3.09845e-05 0.000125704 -2.8587e-05
-4.3901e-05 7.24545e-07 -1.04542e-05
1.82592e-05 -1.1981e-06 0.000145961
-3.02266e-05 1.95611e-05 -2.72436e-05
4.49393e-05 -1.33044e-06 -4.6184e-05
-0.000111854 0.000259991 -0.000332423
1.07269e-05 -9.0214e-05 -0.000187237
-7.47932e-06 4.05187e-05 1.23072e-05
3.70471e-05 4.88076e-05 -1.80375e-05
2.84138e-05 -0.000107153 -3.55956e-05
4.66953e-08 3.74193e-05 7.30609e-05
-0.000307836 -0.000211175 -0.000363198
0.000329259 0.000271269 -0.000154929
-1.93932e-05 -4.45003e-05 6.23682e-05
-4.45396e-06 7.58194e-06 -1.16508e-05
4.8509e-05 -6.32546e-05 2.17558e-05
8.32122e-06 2.99721e-05 2.88123e-05
5.0724e-05 -7.08101e-07 -5.09535e-05
1.79119e-05 8.25813e-05 4.25112e-05
-8.77961e-06 2.87458e-06 4.90389e-06
2.20923e-05 -4.14413e-06 -1.14723e-06
-1.94319e-06 2.70545e-06 -1.71837e-06
-1.05746e-05 8.57391e-06 5.61707e-06
1.25017e-05 -1.9863e-05 -1.56405e-05
1.91539e-06 -5.05426e-06 -1.31941e-05
-1.88253e-06 1.58896e-05 -2.24071e-06
1.07672e-05 -6.86455e-06 -2.94439e-05
-1.46997e-05 -2.59509e-08 -7.67562e-06
2.94332e-06 1.67444e-06 -1.23372e-06
-2.98294e-05 -1.04809e-05 4.02542e-05
4.05697e-06 1.09576e-05 -1.80569e-05
-8.91617e-06 -1.70148e-06 -4.35374e-06
-8.32107e-05 0.00010031 5.87436e-05
-3.57856e-05 1.13384e-05 -5.37738e-05
-6.17219e-06 7.14269e-06 1.35599e-05
1.44128e-07 4.9883e-07 -2.10041e-07
-2.90669e-06 5.96294e-07 2.1981e-06
-4.38063e-05 1.28634e-05 -2.42625e-05
-2.43963e-05 -9.4425e-06 2.11686e-05
-1.7217e-05 -1.30537e-05 3.97832e-05
1.44798e-05 1.26294e-05 2.8405e-05
7.66722e-05 -3.45326e-06 2.31842e-05
5.38926e-07 1.69519e-07 -4.07293e-06
-3.68021e-05 -8.5278e-06 5.33241e-05
-4.50107e-05 -2.14785e-07 5.02129e-05
3.19638e-05 8.8453e-06 3.60656e-05
1.50669e-05 3.46261e-05 2.03922e-05
1.44044e-05 1.43267e-05 -8.89641e-07
1.55568e-05 2.60554e-05 -2.23607e-05
9.3915e-06 3.62082e-05 1.75311e-05
5.91966e-06 1.34274e-05 2.69509e-05
-1.27187e-05 -4.72047e-06 1.8888e-05
-1.30942e-06 -8.74486e-07 -1.61329e-06
1.52742e-05 1.71451e-05 5.54047e-07
-2.88385e-06 1.13881e-05 -9.57052e-07
-3.70676e-06 -4.9163e-06 -4.03927e-06
1.0269e-05 3.88373e-05 2.1506e-05
-3.52895e-06 1.21465e-06 1.23913e-05
-5.98673e-06 8.18242e-06 4.95659e-06
3.8719e-05 -1.13416e-06 3.43279e-05
-1.43423e-06 2.70207e-06 3.87552e-06
1.58454e-05 1.12009e-05 1.59821e-05
7.0619e-06 -4.74414e-05 2.1259e-05
-9.17316e-07 5.19355e-06 8.54129e-06
-2.45623e-06 -1.52889e-06 -7.24398e-07
1.49907e-05 1.12386e-05 -2.70781e-05
3.28322e-05 4.32751e-06 3.97892e-05
2.74977e-06 -9.42333e-07 1.25469e-05
3.17066e-06 6.32126e-06 2.08758e-06
1.17683e-05 2.17513e-05 -7.66785e-06
-3.03198e-07 1.06144e-05 1.45228e-05
0.000146826 0.000267328 3.63698e-05
-7.88112e-05 -0.000107215 0.000172369
1.79145e-05 -2.79282e-05 -1.1827e-05
5.46181e-06 4.24938e-05 7.50868e-05
6.70885e-05 1.6715e-05 1.09345e-05
-1.381e-05 5.15965e-06 -3.84625e-05
-2.68873e-05 -2.57913e-06 2.11832e-05
3.61666e-05 1.2717e-05 2.41078e-05
-6.68754e-07 -2.29628e-05 -3.86307e-07
3.70502e-05 1.91425e-05 -7.23846e-06
-8.72298e-05 8.4292e-05 -2.28827e-05
-0.000165753 1.41209e-05 -0.000225187
1.11741e-05 -1.76949e-05 -2.68122e-05
1.32479e-05 2.42133e-05 -5.82681e-05
-1.51881e-05 -3.60534e-05 6.38704e-05
-2.53782e-05 -6.71173e-06 2.14986e-05
-3.03384e-06 1.05773e-05 1.13709e-05
9.28786e-06 -1.34891e-05 -1.8714e-06
2.63183e-06 8.05873e-06 -2.87967e-06
4.45367e-06 4.10853e-06 -4.87276e-06
1.81264e-06 1.29985e-05 1.28222e-05
-8.89493e-05 -4.75919e-05 -2.51536e-05
-2.36461e-05 -5.69218e-05 0.000159871
5.61152e-06 1.50829e-06 -6.45114e-06
-2.20033e-05 8.46698e-06 -1.87405e-05
-1.58984e-05 -1.18368e-05 1.19266e-05
2.12072e-06 -5.00478e-06 -8.79536e-06
-7.66269e-05 -4.67619e-05 -9.26642e-05
-8.92809e-06 2.19512e-05 1.04438e-05
1.58753e-05 8.82969e-07 -0.000119144
1.19792e-07 -3.03705e-05 2.09545e-05
5.60696e-05 -2.16351e-05 -5.23985e-05
-9.48684e-05 -1.36728e-05 -3.22171e-05
-3.45944e-07 1.69765e-05 2.74538e-06
-5.29346e-05 -7.71828e-06 2.09472e-05
-7.451e-06 -6.81281e-07 -4.9309e-06
3.9621e-05 -4.52047e-05 -6.71266e-05
-5.94347e-06 -1.48821e-05 1.70042e-05
-0.000147745 3.17452e-05 -7.1982e-05
-5.98935e-05 1.43206e-06 5.66702e-06
-3.15955e-05 -2.21062e-05 2.43583e-05
-6.45074e-05 -5.07369e-05 -8.20948e-05
-2.86706e-05 -3.31563e-05 2.0382e-05
1.94088e-05 5.95428e-05 3.12166e-05
-1.97601e-05 9.08387e-07 -6.6992e-07
7.12831e-06 -1.26142e-05 -6.72217e-06
3.44751e-06 6.76328e-06 3.40391e-05
1.71547e-05 7.82939e-05 3.62583e-05
-0.00010706 -0.000180348 -0.000231315
0.000367612 -4.45919e-05 -5.86234e-05
-3.38787e-05 1.63306e-05 -2.26101e-05
-8.20721e-07 -9.60315e-07 2.61469e-07
-4.74501e-06 -1.6564e-05 1.23633e-05
-1.47254e-05 -1.0311e-05 -1.86669e-06
9.05305e-06 1.77142e-06 -6.41563e-07
-2.20191e-06 -1.19323e-06 -3.50454e-06
1.86752e-06 2.18339e-05 1.08395e-05
-1.2021e-05 4.87164e-05 2.64697e-05
-2.30414e-05 3.43381e-05 -9.13989e-07
1.25135e-05 7.87692e-05 -8.82213e-05
4.53585e-05 -0.000115377 -4.23559e-05
2.21577e-05 -5.28868e-06 1.05274e-05
4.55097e-05 -1.97552e-05 5.91424e-06
4.333e-05 2.42128e-05 4.96065e-05
1.52542e-05 1.72553e-06 2.60595e-05
0.000160097 -7.61371e-05 -0.000189492
7.32497e-06 -1.30209e-05 -4.48194e-05
-0.000346284 -0.000142051 -0.00043137
0.000208058 -0.000256724 1.82343e-05
-9.50157e-06 -1.88465e-05 -3.6758e-05
-0.000104612 1.45464e-06 4.99233e-05
-5.24917e-05 7.22799e-05 5.66367e-05
-1.06358e-05 3.74015e-05 2.66118e-05
-6.17833e-05 0.000344964 -0.000654671
5.61075e-05 3.19768e-05 5.90899e-05
5.93383e-07 -1.12526e-06 -6.00538e-08
-9.79539e-06 4.80868e-06 5.82226e-06
1.08796e-05 1.45474e-05 1.30145e-05
1.72934e-05 1.22892e-06 -1.20936e-05
-3.56635e-05 7.77297e-05 -7.24819e-05
3.22898e-05 3.75605e-05 3.89996e-05
1.67742e-05 1.86075e-05 -3.98442e-06
-2.452e-07 -1.12762e-06 2.00767e-08
-2.88455e-05 -2.13717e-06 2.05634e-05
8.5989e-06 1.62358e-06 2.8124e-06
2.39347e-05 -5.79515e-06 1.02852e-05
4.23227e-06 -1.29462e-05 -3.03283e-06
-1.04055e-05 -2.89604e-06 7.45039e-06
1.14773e-05 -4.0957e-06 -4.17748e-06
4.91996e-06 1.05938e-05 2.53202e-06
-2.30886e-06 1.55069e-06 -1.58409e-05
1.13602e-05 -3.79951e-06 -4.65163e-06
-2.34625e-05 -3.10703e-05 7.04172e-05
-1.14627e-05 9.18478e-06 3.42346e-05
-4.0165e-06 1.80987e-05 9.9373e-06
9.13321e-08 -6.5468e-07 -1.98492e-05
-4.70104e-06 5.01257e-05 -3.67104e-05
-8.97885e-06 1.90994e-05 2.25136e-05
-3.25913e-05 -3.3055e-06 2.97471e-05
2.5582e-06 6.40513e-06 1.2212e-05
4.5312e-06 4.2285e-06 -7.67161e-06
-1.32785e-08 5.01251e-06 9.31515e-06
-8.40698e-06 -2.45311e-05 4.85491e-05
-1.03519e-07 -4.23097e-07 1.87641e-07
3.47691e-07 2.33977e-07 3.86248e-07
7.2442e-06 1.66062e-06 -1.63565e-07
7.49257e-06 -6.93987e-05 -3.19147e-05
-5.35672e-06 -3.8773e-06 4.3989e-06
2.61086e-05 9.68661e-05 0.000158975
0.000341895 0.000492357 0.000117229
6.91142e-05 -0.000118352 0.00019354
3.66327e-05 -2.75395e-05 1.71097e-06
-6.50087e-07 1.5562e-05 8.20353e-05
-1.41087e-05 3.4129e-05 2.07033e-05
9.08069e-06 3.94686e-06 -8.62896e-06
1.45296e-05 5.55281e-06 1.51239e-05
-9.52099e-06 3.73583e-05 -1.11332e-05
2.24499e-05 2.42161e-05 -1.75771e-05
8.0071e-06 3.29155e-05 -1.51445e-05
-1.84693e-06 -6.28441e-06 9.40383e-07
1.43028e-05 -9.39051e-06 2.59691e-06
3.30972e-06 3.00353e-06 -1.22814e-05
2.90124e-05 4.79191e-06 2.53419e-05
1.01393e-05 -2.84214e-05 -1.75386e-05
9.49551e-07 4.34086e-07 1.59007e-06
-3.52956e-06 -9.72393e-06 7.80207e-06
1.65905e-05 -1.39136e-07 -1.3319e-05
-7.40305e-06 2.88208e-07 1.00141e-05
2.06109e-05 -4.34583e-05 -1.30307e-05
5.91328e-05 -1.12823e-05 3.30605e-05
4.37695e-05 -1.14024e-05 -4.80651e-05
-9.54673e-06 1.40707e-05 -1.11593e-06
1.80748e-05 -1.71792e-05 4.77913e-06
-1.08984e-05 -1.64784e-06 1.3944e-05
-1.89293e-06 -2.00669e-05 2.28472e-05
-1.31977e-05 -1.23822e-05 -1.47939e-05
-4.31648e-06 1.69874e-05 -2.62005e-06
-2.69583e-05 -2.4877e-05 1.50827e-05
1.47475e-05 -8.84862e-05 -1.01859e-05
-3.73367e-06 -4.68443e-07 2.88552e-07
-1.06804e-05 -1.29064e-05 -3.12734e-06
5.32511e-06 7.3983e-06 -8.98937e-06
1.289e-05 7.77076e-06 2.04174e-05
7.88923e-08 -3.27456e-06 -1.71057e-06
-6.27881e-06 -4.5921e-06 2.59592e-05
0.000108028 0.000150168 9.25633e-05
1.1427e-05 0.000128182 0.000179594
0.000189702 0.000498273 -1.96574e-05
-2.14619e-07 -1.44878e-07 9.3666e-06
-6.75163e-07 1.17496e-06 8.11971e-06
2.89257e-05 1.60313e-05 1.81771e-05
-7.32657e-05 -2.29492e-05 -7.70036e-06
1.88011e-07 -1.05791e-06 -5.67345e-07
-1.11959e-05 -5.53273e-06 -9.0858e-06
-4.17848e-05 1.02061e-05 -1.64744e-05
1.62323e-05 3.55509e-06 -2.91432e-07
-4.61419e-05 1.62075e-05 -1.96377e-05
4.16018e-06 -2.36205e-05 -2.95532e-05
-1.1156e-05 1.09881e-05 1.23474e-05
1.14887e-05 -1.79378e-05 6.76078e-06
8.26903e-07 -5.47642e-06 2.49299e-06
-6.47073e-06 -9.73708e-07 5.72386e-06
6.7088e-06 1.44543e-05 8.9784e-06
6.47252e-06 1.10969e-06 -6.57441e-06
-1.17374e-06 4.1468e-06 -2.92293e-06
2.14233e-05 -1.14576e-05 1.75249e-05
1.01278e-05 2.68032e-06 -1.22858e-05
1.78487e-06 -1.87136e-05 -4.15582e-06
-1.40792e-05 1.08016e-05 1.6396e-05
1.55365e-07 2.29525e-06 1.18553e-05
3.01784e-05 2.49304e-05 -2.00835e-05
-6.33387e-07 -2.67017e-06 -4.38425e-07
5.06225e-05 4.44009e-06 3.71521e-05
2.42354e-06 3.17308e-06 -2.89791e-06
1.37205e-05 4.41815e-06 1.19289e-05
-1.41308e-05 -1.16143e-05 9.3703e-06
1.34266e-05 4.38403e-06 -1.8378e-05
5.18356e-05 2.19208e-05 5.98588e-05
-8.61695e-05 -3.9273e-06 0.000136779
-4.13463e-06 -1.36315e-05 9.10622e-06
-3.18858e-05 -3.66888e-05 7.75692e-06
-4.2713e-07 -1.61998e-06 -1.36366e-06
-5.78989e-05 0.000122087 -0.000170398
-2.99892e-05 -4.96598e-05 -3.11158e-05
4.38967e-06 -4.77855e-06 3.44122e-06
7.5631e-06 1.14627e-05 1.26982e-05
-1.91453e-05 9.86613e-05 -3.55482e-05
4.66476e-05 1.47741e-05 1.55434e-05
1.4523e-05 2.12524e-05 -2.60694e-05
4.6437e-06 4.1826e-07 -3.04348e-06
-5.50288e-06 1.72562e-07 -1.31217e-06
3.93948e-07 6.7602e-07 -8.52923e-07
5.44049e-06 -4.19817e-06 -9.88782e-07
-1.85503e-05 -4.37096e-05 -7.04534e-07
1.08238e-05 -8.33001e-06 6.36012e-05
0.000156557 4.61174e-05 -0.000140169
5.46546e-05 8.6223e-05 9.14941e-05
6.35368e-05 0.000159093 -0.000154025
4.69795e-05 -4.11122e-05 -2.96339e-05
-1.52548e-05 -3.68334e-05 1.03955e-05
5.15849e-05 4.31686e-05 3.62451e-05
0.000137387 4.01163e-05 -0.000242748
-6.21669e-05 9.4671e-05 4.65542e-05
-2.92964e-05 -1.71643e-05 1.17699e-05
4.37541e-06 -9.48259e-07 -9.23653e-06
-8.37554e-07 -2.02356e-06 -7.60122e-07
5.60852e-08 -3.30018e-08 2.2184e-06
3.26816e-05 8.29785e-05 2.83132e-05
-0.000127524 0.000283935 8.53124e-05
-0.000122497 -4.77901e-05 0.000238037
-5.42737e-06 -3.57077e-05 -5.87306e-06
5.87827e-06 2.07306e-06 9.15682e-06
-0.000145347 1.11963e-05 6.79152e-05
-4.70631e-05 -4.45728e-05 -1.03465e-05
1.08531e-06 1.17399e-05 7.97499e-06
-1.32035e-05 1.3934e-05 5.54258e-06
5.32719e-06 -7.36014e-07 -1.95124e-06
-7.04175e-05 1.64576e-05 5.28568e-05
-8.84223e-06 2.53711e-05 -3.45248e-05
1.66646e-05 -6.81324e-06 3.09858e-06
7.82864e-07 9.67859e-09 4.07191e-07
2.71315e-06 -4.0195e-05 -1.93026e-05
1.71355e-05 -1.65202e-05 1.17001e-05
-1.77732e-08 -1.25988e-07 -1.14157e-06
-7.22439e-06 -3.69855e-05 2.9357e-05
2.76605e-06 -3.25658e-05 -2.06896e-06
1.952e-05 1.09432e-05 2.9744e-05
-9.12088e-06 8.93902e-07 1.36673e-05
1.53619e-05 3.04818e-05 6.31748e-05
-9.44983e-06 -2.14704e-05 -1.13384e-05
1.55037e-05 -1.02021e-05 1.07552e-05
-2.51639e-05 -5.15809e-06 -1.41958e-05
3.43356e-06 -3.81238e-05 6.70137e-06
9.48972e-06 4.21527e-06 4.58878e-06
5.50485e-07 4.3004e-05 1.36332e-05
-4.63683e-07 -8.52052e-06 1.25899e-05
1.61634e-05 5.10426e-06 2.06396e-06
1.70643e-05 8.97456e-06 -2.05188e-06
-1.72565e-05 7.40979e-05 -4.03582e-05
4.76952e-06 -8.76296e-08 -3.54038e-08
3.90048e-05 -0.000101734 -0.000126514
1.13371e-05 3.71053e-05 3.57668e-07
-5.34506e-07 3.17026e-05 1.41192e-05
-6.5192e-06 -6.59461e-07 5.88222e-06
4.90308e-06 -8.89433e-07 3.22151e-06
-4.63405e-06 3.93575e-07 -2.88892e-06
-2.5668e-05 -0.000107875 0.000204126
-5.11339e-06 -1.42321e-05 -4.26199e-05
-1.27226e-06 -7.23352e-07 4.90993e-07
1.30943e-06 -1.94539e-06 1.20541e-07
5.86748e-06 -2.0011e-05 1.14267e-05
-1.72051e-05 -5.62608e-06 -1.81745e-05
6.31141e-05 -1.20134e-05 0.000203566
1.43716e-05 1.01913e-05 -5.79236e-05
-3.9829e-05 2.84724e-05 1.55051e-05
-1.10881e-05 -1.64243e-06 1.85169e-05
-8.60914e-06 -8.74681e-06 -1.30489e-05
5.1457e-06 -5.09682e-06 4.77724e-06
-3.201e-06 1.09127e-05 -7.74554e-06
2.44385e-05 -1.24198e-05 5.02514e-05
-9.47154e-08 -6.03399e-06 4.99946e-06
-1.0484e-06 2.02001e-05 5.8742e-05
-3.93338e-06 1.49021e-06 -1.17011e-06
-3.94939e-06 -4.83868e-06 -3.32498e-06
3.18987e-06 8.15909e-06 6.15252e-06
-3.77207e-06 -1.93151e-06 -1.88091e-05
-0.00011672 -9.9322e-05 0.000201611
4.73883e-05 -9.66531e-06 7.79882e-05
-1.05978e-05 8.2654e-06 3.43256e-06
-0.00060629 -0.00018575 -0.000709188
3.68745e-05 4.58924e-05 -6.68884e-05
-8.83937e-07 2.37781e-06 1.34511e-05
1.19456e-06 3.63145e-07 -3.0711e-06
-8.14311e-06 -8.68281e-07 -5.71504e-06
2.79768e-06 -1.93695e-05 -2.53373e-05
3.95091e-05 2.1259e-06 -1.34705e-05
-3.06032e-05 4.23513e-06 2.87268e-05
-1.57658e-05 -3.87807e-05 -3.35086e-05
-5.57037e-06 -2.0489e-06 -3.5208e-06
3.38898e-05 -6.44186e-06 7.08719e-06
3.93148e-05 -2.43849e-05 1.59076e-05
-3.48527e-05 2.6222e-05 0.000299021
-4.69696e-06 -5.41659e-06 3.69691e-06
-2.25613e-06 2.61427e-05 9.91312e-06
3.85196e-06 -1.86228e-05 4.7368e-06
-2.93312e-05 1.14758e-05 -1.25807e-05
5.56192e-05 1.88682e-05 6.06861e-05
-1.83953e-07 -5.86352e-05 3.91071e-05
-3.75579e-06 -1.74717e-08 1.26764e-06
-5.55681e-06 -5.28695e-07 -2.2206e-05
-1.63647e-05 -7.00624e-06 4.18693e-05
-1.14655e-05 -2.78723e-05 1.8566e-05
-1.91015e-05 -7.11826e-06 -2.0477e-05
8.45782e-06 -6.58078e-07 2.86174e-05
-5.47438e-06 -1.26405e-05 -1.98251e-06
8.39816e-08 -1.82833e-07 -1.29328e-07
-9.7771e-06 -3.81993e-05 -9.50452e-06
-5.24556e-07 -1.23514e-06 5.14853e-06
1.347e-05 1.68478e-07 -3.65551e-06
7.86534e-07 7.46647e-07 -1.5491e-05
-4.24494e-06 8.25266e-06 9.18697e-06
1.17335e-05 5.6371e-06 -1.03317e-06
5.45942e-07 -3.89943e-06 2.86507e-07
-3.58957e-05 -2.19393e-05 2.26363e-05
2.92843e-06 6.56275e-06 1.05066e-05
5.46374e-06 1.06719e-06 -7.74305e-06
-5.27569e-05 7.41957e-05 4.39888e-05
-0.000108752 2.67688e-05 -2.27439e-05
2.65877e-06 4.62252e-06 2.0129e-05
-1.29326e-05 -3.9641e-05 2.54492e-05
3.09834e-06 -5.40687e-06 5.65841e-06
3.55873e-05 -5.60511e-05 1.22951e-05
1.12958e-06 -6.37937e-06 4.33877e-06
5.8806e-06 1.89807e-05 1.07198e-05
8.75081e-06 -4.48216e-07 1.51518e-05
-2.95883e-05 4.31958e-06 1.21931e-05
-1.50391e-05 -4.41153e-05 -5.17728e-05
-1.4192e-06 -4.62115e-06 -2.68781e-06
6.27906e-05 -1.38827e-05 -1.40354e-05
-1.64036e-05 4.59443e-06 -1.33584e-05
8.38477e-06 1.19453e-05 3.16499e-05
-4.33011e-06 -3.08324e-05 1.07387e-05
9.68392e-06 -9.26837e-06 -1.05357e-05
-1.38959e-05 4.9528e-06 -2.84926e-05
1.06374e-05 -4.67367e-05 -4.13036e-05
2.00639e-05 -9.46963e-06 -1.3882e-05
-9.01151e-06 4.26342e-06 -2.00316e-05
-8.17968e-07 -4.3776e-06 2.92433e-06
6.01948e-06 -7.81566e-07 -7.31013e-06
1.58648e-05 -3.67606e-06 6.54759e-06
-6.5854e-07 7.72435e-06 -2.93857e-06
2.72692e-06 -9.81787e-07 3.23631e-06
-1.3658e-05 9.12e-06 1.72993e-05
0.000257885 1.36185e-05 0.000258501
8.76544e-06 -1.9053e-05 5.53547e-06
3.60107e-05 1.27324e-05 6.75917e-05
-0.000119536 -2.84902e-05 7.49196e-05
1.34719e-05 -1.44674e-05 2.5602e-05
5.14393e-05 9.6166e-05 -0.000182893
5.39402e-05 5.21192e-05 6.99455e-05
-4.42042e-05 3.00419e-05 7.31744e-05
4.12458e-05 -9.51713e-06 0.000104243
-1.24783e-06 -2.77069e-06 -2.07272e-06
3.22434e-07 5.82815e-06 -6.39088e-06
2.6625e-07 6.34079e-07 -2.08431e-07
7.36821e-06 3.43355e-05 -1.37179e-05
-2.24681e-05 -1.03051e-05 -2.07596e-05
-5.02211e-06 1.45481e-05 -1.61258e-06
-1.17233e-05 3.75409e-06 -3.00652e-05
6.29627e-05 -2.38881e-05 -6.62299e-05
3.00017e-05 4.6097e-05 -4.67154e-05
-1.16621e-07 6.76371e-05 -4.34445e-05
4.23433e-05 -6.97699e-05 6.60609e-05
-1.4293e-06 -6.03507e-06 3.47495e-07
-8.42893e-07 3.65262e-07 -2.63912e-06
-6.74782e-06 7.98154e-06 -8.20764e-06
1.11649e-05 3.0502e-06 1.09142e-05
-2.09678e-06 -4.14224e-05 -2.69882e-05
1.43251e-05 7.68439e-06 -4.53263e-06