<?xml version="1.0"?>
<VTKFile type="UnstructuredGrid" version="0.1" byte_order="LittleEndian" compressor="vtkZLibDataCompressor">
 <UnstructuredGrid GhostLevel="0">
  <Piece NumberOfPoints="1063" NumberOfCells="1063">
   <PointData>
    <DataArray type="Float64" Name="Elongation" NumberOfComponents="3"/>
-6.44523e-06 -4.30336e-05 -1.22768e-06
7.1072e-06 -1.23386e-05 3.20287e-08
2.3097e-06 -1.20544e-05 -4.31184e-08
2.7826e-06 -1.14483e-05 2.89915e-08
2.06216e-06 -1.23364e-05 5.19772e-08
-1.38665e-06 -1.7711e-05 2.17878e-08
-2.26189e-06 -1.62356e-05 1.91084e-09
-1.56981e-05 -2.88998e-05 -1.25649e-07
-1.73826e-05 -9.46253e-06 -6.32475e-08
8.59008e-06 -6.88949e-06 5.95697e-08
2.03271e-05 7.78802e-07 3.72588e-07
4.00118e-06 4.54614e-06 9.99918e-08
-9.83095e-07 1.31779e-07 -1.27409e-08
2.71432e-06 -2.88571e-06 2.3821e-08
1.3306e-06 -2.539e-05 -9.19293e-08
-5.36352e-06 0.000120645 2.83791e-07
1.88637e-05 7.88724e-07 -0.000712459
-2.97145e-05 1.9378e-06 -3.72924e-07
-8.28548e-05 6.01668e-06 4.94186e-07
8.54107e-06 -4.10301e-06 1.00173e-07
1.88775e-05 -4.08507e-06 2.3688e-07
3.849e-08 -4.20437e-06 -3.75555e-05
-8.88194e-06 -4.64845e-06 -1.27079e-07
5.76673e-06 -9.03465e-06 6.56802e-08
4.92267e-06 1.95208e-05 5.32661e-08
9.67817e-06 -1.32649e-08 1.91739e-05
1.66934e-07 -1.19333e-05 6.12038e-09
-1.18831e-05 7.20411e-05 -1.77856e-07
7.74332e-06 5.017e-08 -3.78226e-05
-2.20434e-05 -1.53822e-05 -1.42615e-07
-6.22323e-05 -1.00108e-05 4.8148e-07
8.80395e-06 -1.58144e-06 1.33128e-07
1.59784e-07 2.08134e-05 0.000205004
1.2969e-05 7.44135e-06 3.00677e-07
2.14434e-07 1.44856e-05 7.1693e-05
0.000130091 9.71734e-06 1.70972e-06
5.44791e-06 9.34683e-06 1.8315e-07
2.3221e-06 1.00896e-05 1.51872e-07
-1.55532e-07 -4.49568e-06 -5.2169e-08
3.96467e-06 -1.15337e-06 5.73766e-09
-2.52239e-05 -3.21407e-05 -5.04855e-07
-2.56876e-05 0.000271439 2.22508e-06
9.19584e-06 1.39309e-06 1.60696e-07
2.37947e-08 2.1016e-05 -0.000152565
7.13852e-06 2.79384e-06 1.55089e-07
-1.60738e-08 5.74029e-07 5.33714e-05
0.000215888 7.37327e-06 2.90668e-06
-1.57942e-05 6.76028e-06 4.18388e-08
2.87583e-05 1.99467e-07 -5.07934e-05
2.2423e-06 4.69373e-06 8.78287e-08
3.25582e-09 1.32875e-06 1.16002e-06
6.61829e-05 4.74329e-06 4.52917e-07
9.78721e-10 7.58974e-07 -2.25933e-05
-1.32902e-05 6.63776e-06 2.59695e-08
-1.76033e-05 -2.24551e-06 -6.52852e-09
-6.97003e-05 -2.66729e-05 2.20921e-06
0.00270313 0.000118479 -0.00762118
8.11852e-06 1.91662e-06 1.54902e-07
1.84099e-05 1.73244e-06 3.19161e-07
1.90398e-08 -2.57504e-06 -9.32954e-05
0.000268677 2.09365e-06 3.9422e-06
0.000126213 6.36695e-06 3.55816e-07
-2.32916e-06 -9.04429e-07 -2.86573e-08
-5.19453e-08 4.02058e-06 -3.15823e-05
0.000139033 8.09224e-06 8.15865e-07
-1.17267e-05 -4.23677e-06 -2.36221e-08
-1.81539e-05 -1.23825e-05 5.52663e-08
-4.41664e-05 -3.55639e-05 7.3523e-06
-0.0041094 0.00265595 -0.00533174
-3.53052e-07 -7.3663e-05 -2.9483e-05
9.21924e-06 1.63799e-06 1.14509e-07
1.64554e-05 -2.49879e-06 2.10236e-07
6.79036e-08 -6.12819e-06 0.000115649
0.00034994 -3.14872e-05 5.79051e-06
1.5434e-08 2.98537e-07 2.85356e-05
0.000197117 -3.48305e-05 3.35637e-07
0.0001284 -1.45847e-05 5.51508e-07
6.22338e-08 1.22374e-05 9.71245e-05
0.000224247 1.09057e-05 1.3859e-06
-0.000104451 8.24178e-07 -8.55622e-05
0.00015576 1.14717e-05 1.48355e-07
-2.29009e-05 -2.49486e-05 2.98435e-07
-9.58058e-06 -8.51117e-06 2.32059e-06
-0.000998218 -0.00258913 0.00659093
-0.000359239 -0.00293698 0.00551165
-4.69463e-07 1.14757e-09 -7.36181e-06
1.96905e-07 -8.19784e-06 -1.81965e-07
7.34003e-05 1.00598e-05 8.80328e-07
-3.30652e-07 -4.7627e-05 0.000166161
7.89699e-05 -2.39297e-05 1.6028e-06
8.84245e-08 -6.36321e-05 0.000108989
0.000382057 6.73826e-05 3.28625e-06
1.64818e-07 -1.49978e-05 4.916e-05
0.000211545 1.462e-05 1.20519e-06
-4.77147e-07 2.13e-05 0.000103205
0.000230378 -5.29171e-05 1.74347e-06
-2.19384e-07 4.7218e-06 7.75447e-05
0.000220047 -4.06777e-05 7.75414e-07
-1.68252e-07 -5.73129e-05 1.40202e-06
-9.10341e-06 -5.33913e-05 -1.97689e-06
2.07901e-05 0.00105622 -4.73406e-05
-1.20417e-05 0.000181011 5.06178e-06
-1.15313e-06 -5.18584e-05 8.91953e-05
-0.000172321 -4.7786e-06 -0.000795642
7.71256e-05 0.000166796 6.97099e-06
-1.12855e-06 -0.000186396 -0.000282444
1.46558e-06 -3.59805e-05 -0.000158394
-0.000284681 -0.000256728 -4.77338e-08
-2.04242e-06 0.000129834 -0.000139877
5.04987e-05 -3.88334e-05 1.09802e-06
-1.39748e-06 3.46444e-05 -0.000145333
0.000116473 0.000208849 -1.27482e-05
-6.38492e-06 -1.11976e-05 1.2729e-06
-1.76219e-05 3.60008e-06 3.5076e-06
1.68908e-05 3.73575e-06 1.19794e-05
-1.09759e-05 2.19006e-06 -5.44926e-07
-1.2541e-05 -9.45368e-06 -7.83239e-07
-1.42779e-05 -7.72012e-06 -9.27432e-07
-1.29571e-05 -5.65826e-06 -6.18409e-07
-1.27609e-05 -3.94285e-06 -5.49337e-07
-1.62507e-05 1.48131e-06 -7.98355e-07
-1.48472e-05 2.83397e-06 -7.36695e-07
-9.72369e-06 1.39556e-05 -5.2576e-07
6.00529e-06 2.07713e-05 -9.49843e-07
-1.36779e-05 -8.76226e-06 -7.32696e-07
-2.39493e-05 -5.80763e-06 -7.74853e-07
-1.09092e-05 -7.74714e-06 -3.79439e-07
-8.14798e-06 -1.44609e-06 -2.38413e-07
-8.59079e-06 -5.35643e-06 -2.68304e-07
-8.49802e-06 1.41594e-06 -1.76748e-07
-3.92165e-06 6.54454e-06 -5.64784e-08
6.79927e-07 -5.83282e-05 -4.38631e-07
-3.13333e-06 -7.62425e-08 3.09428e-05
1.26543e-05 -1.24607e-05 1.69735e-06
2.06446e-10 -8.46177e-08 -3.03649e-06
6.24631e-06 -2.33161e-09 3.8161e-05
-1.06518e-05 -1.17851e-05 -6.8742e-07
-1.70386e-05 -3.28794e-06 -4.98745e-07
-8.97451e-06 -3.09756e-06 -2.2296e-07
-1.11284e-05 -5.89616e-07 -2.36833e-07
-1.21926e-05 3.94148e-06 -2.54503e-07
-9.87466e-06 -2.03655e-05 -3.41909e-07
-4.43332e-06 7.90662e-06 -3.63013e-08
1.41278e-05 -1.18985e-07 -4.76379e-05
8.62693e-06 -3.64618e-05 1.42575e-07
4.3871e-06 -7.55329e-06 5.12298e-07
-1.05813e-05 -1.36071e-05 -7.92154e-07
-1.8529e-05 -1.2742e-05 -7.58252e-07
5.29727e-05 -1.61132e-05 2.14441e-07
-6.56973e-06 -2.09332e-05 -5.96587e-07
-7.74081e-06 -1.49711e-05 -5.00746e-07
-8.1632e-06 -2.27655e-08 -6.86804e-05
3.74141e-06 -1.09596e-05 -1.9135e-07
-4.43465e-07 -8.5063e-06 -1.93383e-07
1.59762e-05 -5.82181e-06 2.98398e-07
-0.000450503 -0.00319246 -0.000155571
-0.000128216 -1.53454e-05 -0.000407825
-5.93378e-05 3.27461e-08 -1.20038e-05
-9.1801e-06 -1.33674e-05 -6.04418e-07
-1.88077e-05 -1.00196e-05 -7.16081e-07
5.81076e-05 -3.83806e-06 4.84869e-07
1.65974e-08 2.41626e-06 -4.37128e-05
-4.63055e-07 -1.44223e-05 -3.7841e-07
-8.02632e-06 -1.37543e-05 -4.91768e-07
1.56061e-05 -1.57523e-05 -2.21435e-07
-4.99553e-06 -1.64524e-05 -4.9195e-07
1.03216e-05 -7.45391e-06 -6.30322e-08
2.0733e-05 -9.88004e-06 1.14917e-06
2.45669e-06 -3.4158e-09 9.70179e-06
-7.41841e-06 -1.36796e-05 -6.31072e-07
-1.97909e-05 -9.85509e-06 -7.47656e-07
0.000105189 -1.26595e-05 4.9224e-07
1.56051e-09 2.51495e-06 6.83301e-05
8.0191e-05 -9.01682e-06 2.82355e-07
-8.42322e-06 -6.69989e-06 -2.60434e-07
1.73815e-05 5.27458e-07 1.85067e-07
3.71869e-06 -2.35776e-06 4.25727e-10
1.25013e-05 1.09302e-05 1.12423e-07
0.000199983 3.85672e-05 -2.79317e-05
-1.37585e-06 6.69074e-10 -1.09128e-07
-1.11832e-05 -1.10633e-05 -4.53843e-07
-2.13218e-05 -4.92028e-06 -6.61348e-07
0.000116718 -1.36771e-05 5.66851e-08
6.18464e-08 2.65194e-06 9.89452e-05
9.12913e-05 -1.91811e-05 -1.48844e-07
5.17764e-05 -5.08459e-06 4.85655e-07
9.3301e-06 4.45816e-06 7.89132e-08
4.36708e-05 -4.49436e-06 -1.79315e-07
-1.57058e-05 3.28967e-07 -0.000126818
1.08598e-05 3.24349e-05 -6.53527e-07
3.11936e-06 4.34522e-06 -1.54623e-06
8.73391e-06 -9.12339e-09 -4.92719e-06
-8.0036e-06 -6.75679e-06 -4.95785e-07
3.51698e-05 1.66958e-05 1.52988e-06
1.09076e-05 3.24186e-05 1.30341e-06
4.25934e-05 7.15002e-05 2.63575e-06
4.39195e-05 3.57635e-05 6.6656e-07
8.06445e-06 -2.82255e-05 -7.39026e-07
6.04816e-06 -1.13502e-06 -1.3544e-07
4.43e-05 6.00001e-05 -2.49417e-06
3.16259e-06 -2.18065e-09 -3.69773e-06
-1.0194e-06 9.82071e-06 9.04295e-07
-1.87534e-05 6.04691e-05 5.79192e-06
-0.000157095 -1.79787e-06 -0.000478358
2.11913e-05 5.61736e-05 3.39733e-06
0.000160774 0.000159516 8.99013e-06
4.7617e-05 0.000120917 7.86806e-06
0.000116883 -2.34416e-05 -4.61728e-06
9.00407e-05 -1.29748e-06 -4.33053e-06
2.41901e-06 1.82193e-05 -3.28637e-06
1.26956e-05 9.90243e-06 -8.57501e-06
-2.26492e-08 -3.92713e-06 8.57752e-06
-4.48262e-07 2.0257e-09 -2.28627e-06
7.64902e-06 1.45609e-05 2.51351e-06
5.35908e-06 1.49847e-05 8.95059e-07
9.03138e-06 1.23969e-05 9.2e-07
8.62846e-06 1.36473e-05 8.29138e-07
8.39681e-06 1.32118e-05 7.56821e-07
1.25897e-05 6.38937e-06 9.0905e-07
9.46265e-06 3.91661e-06 6.63869e-07
7.63836e-06 2.37929e-06 6.79712e-07
1.22054e-05 1.15622e-05 5.52085e-06
5.34908e-06 1.07013e-05 5.69907e-07
5.77774e-06 -3.04866e-07 9.934e-08
1.00466e-05 2.92122e-07 2.47707e-07
8.5498e-06 -6.98872e-06 2.2875e-07
8.43853e-06 1.75165e-06 2.2385e-07
6.27489e-06 1.44103e-06 1.5625e-07
8.02289e-07 -3.01007e-05 -7.39855e-08
1.14677e-05 1.11382e-05 6.30061e-07
3.48527e-05 -2.3346e-05 1.21218e-05
-0.00350629 0.00631682 -0.0140247
5.76972e-09 3.63436e-06 6.51984e-06
4.23474e-06 3.55312e-09 -2.03545e-05
7.90625e-07 1.35789e-05 5.82379e-07
1.03904e-05 4.72393e-06 3.29274e-07
7.80654e-06 7.79165e-06 2.64928e-07
6.99068e-06 7.43758e-06 2.58795e-07
6.9382e-06 2.441e-06 1.64422e-07
1.03608e-05 1.19985e-05 3.82364e-07
4.68847e-06 -4.95098e-06 3.69898e-08
-1.57622e-05 1.87118e-07 -3.31408e-05
8.06174e-06 5.78405e-06 5.42047e-07
1.79224e-05 -8.43227e-07 5.30975e-06
9.16526e-09 -8.3811e-07 5.59582e-05
-0.000266268 -2.09571e-08 -2.51439e-05
2.48851e-07 1.33085e-05 5.67897e-07
1.03007e-05 3.90923e-06 2.67669e-07
-4.80458e-05 7.1299e-06 -5.12281e-07
2.91814e-06 2.26199e-05 4.4776e-07
-0.000206156 -7.26787e-07 0.000124913
1.08719e-06 6.8641e-06 1.38803e-07
5.33995e-06 -1.02909e-08 -5.57946e-05
3.35496e-06 1.09837e-05 2.75014e-07
2.74171e-06 1.03025e-05 2.31988e-07
3.67232e-06 -1.01544e-05 6.98496e-08
3.19368e-05 2.97885e-05 1.03096e-05
-0.000557418 0.000102849 -0.000533379
-0.00027152 5.35859e-07 1.77089e-05
-5.46215e-07 1.12702e-05 3.76683e-07
1.11304e-05 5.19503e-06 3.05843e-07
-6.51771e-05 4.43193e-06 -6.80137e-07
-5.05349e-08 3.05288e-06 0.000355239
8.42797e-06 9.52769e-06 3.58136e-07
2.5574e-06 9.56772e-06 2.40317e-07
-3.38136e-06 1.21782e-05 2.24068e-07
4.46924e-06 1.37153e-05 3.55815e-07
1.3799e-06 -2.51659e-09 -3.54797e-06
1.47004e-05 5.99416e-06 8.82174e-07
-0.000494941 -1.50059e-05 -0.000157676
3.35139e-05 2.42246e-06 9.19332e-06
-0.000150445 -4.87532e-05 -0.000302375
-2.73767e-09 -1.20478e-06 -2.11929e-06
-7.71818e-07 7.70681e-10 -1.01511e-06
-4.61605e-07 1.05146e-05 3.78376e-07
6.87875e-06 4.67215e-06 2.2121e-07
-5.69219e-05 5.52396e-06 -4.73259e-07
2.46688e-06 5.46123e-06 1.52682e-07
4.39756e-06 6.90476e-06 1.80467e-07
-7.22189e-06 8.67611e-06 3.05488e-09
4.17076e-06 1.06438e-05 1.79124e-07
2.8138e-05 7.69624e-06 1.61631e-06
0.000363856 0.000107678 0.000104364
5.00317e-08 2.39569e-05 1.17369e-05
3.99524e-06 -2.35141e-09 2.93826e-05
2.06021e-06 9.67906e-06 2.77214e-07
7.08566e-06 5.81002e-06 2.43034e-07
-1.30671e-05 6.3135e-06 4.97534e-08
8.26616e-06 3.61647e-06 1.91956e-07
-1.40437e-06 6.01872e-06 1.17151e-07
-1.69132e-05 -2.85833e-06 -1.04569e-07
-1.02135e-05 5.35896e-06 -6.29921e-09
1.51699e-05 7.9292e-06 9.56575e-07
9.81599e-06 -0.000524648 -0.00103496
2.49374e-08 2.42021e-05 2.96153e-05
3.2787e-06 7.91756e-06 6.02716e-07
-9.08541e-06 4.3748e-06 2.48336e-07
-1.94043e-05 2.81452e-05 2.04641e-06
-5.06638e-06 1.134e-05 8.39831e-07
-3.48478e-06 2.48965e-05 2.23101e-06
1.45758e-05 1.81599e-05 1.53179e-06
-5.54117e-06 1.93827e-05 1.9479e-06
-1.67671e-05 0.000175527 2.13916e-05
5.30474e-08 -4.15601e-06 -6.75749e-07
-1.8672e-05 -7.29015e-06 -1.1994e-06
-1.1901e-05 1.02556e-05 1.40786e-06
0.000435854 7.20669e-05 1.65595e-05
-1.17986e-05 3.84483e-05 6.89335e-06
9.6613e-06 3.56363e-06 6.85066e-07
-1.60706e-06 -2.21674e-05 2.09504e-05
-2.61784e-05 1.16556e-05 3.03867e-06
3.73508e-06 1.55885e-05 2.54988e-06
1.53223e-05 6.76325e-06 9.05666e-07
1.74924e-07 0.000404054 9.39262e-05
-2.96626e-06 9.964e-08 0.000267029
-6.27042e-06 -1.6542e-05 -2.49987e-06
-8.49773e-07 -1.00693e-05 -4.60642e-07
-4.83795e-06 -7.80951e-06 -4.49791e-07
-3.33992e-06 -9.70532e-06 -4.32957e-07
-4.43516e-06 -1.11393e-05 -4.80703e-07
-4.53659e-06 -1.71718e-06 -2.54022e-07
0.000179458 9.46414e-06 0.00015281
-3.42724e-06 -2.02362e-06 -2.24578e-07
-4.02591e-06 -1.45596e-05 -9.50443e-07
1.27288e-05 9.61727e-06 1.01403e-05
1.38544e-06 -9.46875e-06 -3.83862e-07
1.21792e-05 -9.23123e-07 3.21757e-08
-3.42627e-06 -7.23869e-07 -5.91036e-08
-6.65516e-06 1.97194e-06 -1.38848e-07
-5.28455e-06 -2.14665e-06 -1.24411e-07
-2.1557e-06 -1.90262e-06 -4.39713e-08
-1.16485e-06 -1.22503e-05 -9.452e-08
-1.3784e-06 2.95401e-05 -2.41819e-09
-1.72039e-05 -4.95057e-06 -5.56674e-06
5.96836e-05 7.69275e-06 4.99975e-05
-3.43445e-06 -1.99234e-09 1.75673e-05
9.28256e-07 -7.88843e-06 -2.61857e-07
1.94473e-06 -6.69686e-06 -1.40239e-07
-4.10848e-06 -5.41108e-06 -1.31503e-07
-1.22367e-06 -6.00048e-06 -1.12891e-07
-2.87074e-06 -1.35714e-06 -5.59068e-08
-3.38036e-06 5.82867e-06 -1.97946e-08
-8.53138e-06 -3.24895e-06 -1.58303e-07
-1.39848e-05 9.79661e-06 -1.04848e-06
-1.38922e-05 9.168e-06 -4.40124e-06
5.8132e-08 1.93966e-06 -0.000276966
-0.000332431 -8.42118e-07 7.57856e-05
1.26765e-06 -6.73508e-06 -2.07004e-07
4.70054e-06 9.73172e-07 1.58203e-08
-1.38219e-05 7.86053e-07 -2.51432e-07
-3.52959e-06 3.31295e-06 -2.25994e-08
1.57064e-06 -2.63992e-05 -1.441e-07
-1.25384e-06 2.65798e-09 2.18209e-06
-4.60611e-06 5.94632e-06 -4.2356e-08
-1.66281e-05 -1.28481e-07 0.000112778
-2.51345e-06 -7.53033e-06 -1.05131e-07
-1.56394e-05 -1.07376e-05 -1.52397e-06
-2.34532e-06 7.79517e-06 -7.35428e-07
-0.000274149 1.49025e-06 6.24396e-05
5.05179e-07 -4.68335e-06 -1.10431e-07
2.43377e-06 -2.19597e-06 -2.62522e-08
3.78395e-06 -3.28033e-06 2.47953e-08
-6.87877e-06 -3.11309e-06 -1.54166e-07
-1.20663e-06 -3.73073e-06 -6.58793e-08
-3.02283e-06 -1.99988e-06 -5.67121e-08
-3.25389e-05 3.74915e-07 9.32137e-05
-1.36834e-06 1.88433e-07 -1.89559e-08
-5.65633e-05 5.8184e-06 -4.89366e-06
-1.96612e-05 -1.49796e-06 -6.91495e-06
0.00131057 -0.00430207 -0.00357635
-4.80262e-10 -5.77686e-06 1.41626e-05
-2.76779e-07 -6.30379e-06 -1.89475e-07
5.9686e-06 -1.11482e-06 -6.71959e-09
2.76297e-06 -2.5992e-06 2.37128e-09
-8.48709e-06 -3.29243e-06 -2.01469e-07
-2.3219e-06 -3.02832e-06 -6.67094e-08
-3.12442e-06 -2.55211e-05 -3.33688e-07
-1.35226e-05 -1.43722e-05 -4.90763e-07
7.54383e-06 2.50262e-08 6.76443e-06
-2.90112e-05 -3.13645e-06 -2.62245e-06
-0.000907593 -9.79229e-05 -0.000166414
1.39369e-05 -1.84493e-05 4.74668e-06
1.09282e-05 1.39081e-05 9.53091e-06
3.21048e-09 4.61911e-06 1.40432e-05
9.70792e-06 2.45765e-09 6.17019e-06
8.7748e-07 -4.33976e-06 -9.42449e-08
6.33577e-06 -4.11328e-06 -1.07433e-07
-5.20038e-06 1.01012e-06 -7.74339e-08
-9.68501e-06 2.42771e-07 -1.79874e-07
-4.22603e-06 -7.9414e-06 -2.26316e-07
-2.22824e-07 -1.48292e-05 -3.9751e-07
-1.02731e-05 -7.34546e-06 -4.88729e-07
-1.85854e-05 -5.16508e-05 -5.46226e-06
5.27717e-06 0.000341617 -6.05899e-05
0.00261561 0.000984287 -0.00183814
-1.07096e-09 -2.90598e-06 -3.18526e-05
5.31333e-05 -8.26804e-08 1.04572e-05
1.87309e-06 -1.73418e-05 -1.20619e-06
-6.19755e-06 -7.98442e-06 -7.08769e-07
5.88573e-05 8.05109e-07 0.000435056
-2.00146e-05 -4.46892e-05 -4.54575e-06
-1.21725e-05 -6.19622e-05 -5.91115e-06
-9.6112e-06 3.78447e-07 0.000195397
-9.18445e-06 -1.29223e-05 -1.62286e-06
1.52093e-05 -3.19706e-07 -0.000140326
3.80238e-05 -1.36358e-05 -3.47074e-07
0.000180666 -2.91306e-06 0.000171399
-1.55584e-05 -1.36939e-05 -2.3939e-06
0.000129454 1.4985e-06 -0.000319417
-9.75976e-06 1.81653e-05 1.36506e-06
-0.000426573 -4.82298e-05 0.000152753
4.25593e-05 -0.00178162 0.00258034
-3.77557e-06 -2.04819e-05 -5.00898e-06
-1.24595e-05 -2.21622e-05 -4.50826e-06
-1.20867e-05 -1.61254e-05 -3.81333e-06
7.18073e-05 0.000313329 -0.00011407
9.73017e-05 5.21831e-05 1.55717e-05
-1.89259e-05 -5.92855e-06 -2.75065e-06
-0.000887862 0.000273233 2.30654e-05
-5.80007e-05 -0.000307221 0.000141085
-1.65794e-05 -3.74924e-06 -2.32934e-06
7.22402e-07 3.8451e-06 2.01464e-06
-6.87567e-07 0.000304464 6.02976e-05
1.36745e-05 2.6916e-05 6.25395e-06
8.74261e-06 -9.13392e-05 6.93768e-05
0.000102608 -0.000302753 0.000296584
-2.01097e-05 -1.31776e-05 -2.43572e-05
-0.00193204 0.000615163 2.97321e-05
-6.36516e-06 -6.04802e-06 -3.16921e-08
-3.56439e-06 -8.56779e-07 -2.21709e-08
-4.12699e-06 -1.8454e-06 -4.60944e-08
-3.352e-06 -1.02512e-06 -3.98031e-08
-1.66928e-07 -1.25841e-06 -3.07317e-08
-4.36684e-06 8.12644e-06 1.12811e-07
1.06535e-06 9.4336e-06 2.83992e-07
6.15713e-06 9.98248e-06 5.36216e-07
4.57875e-06 5.86164e-06 1.80617e-06
-6.44512e-10 -3.93129e-06 3.86374e-05
-3.51495e-06 4.84142e-06 1.37903e-07
-1.33537e-05 1.35737e-06 6.38918e-08
-2.32576e-06 2.13725e-06 1.65884e-08
8.37799e-07 1.5569e-05 1.83778e-07
-1.0361e-06 8.1325e-06 8.08405e-08
3.24687e-05 -1.73708e-07 -0.00011628
-4.41307e-07 1.22779e-05 1.4202e-07
4.24518e-06 8.14821e-06 2.32915e-07
6.325e-06 2.01219e-05 1.09845e-06
1.0818e-06 2.93217e-05 3.94391e-06
-1.30429e-06 -1.98363e-06 -1.79772e-08
-8.58636e-06 3.58573e-06 1.24482e-07
1.56677e-06 1.69302e-07 1.37019e-08
-2.30049e-06 1.1934e-06 3.39269e-09
1.19143e-07 -8.65364e-07 -3.00209e-09
-3.8859e-07 -1.48283e-06 -9.6775e-09
1.02082e-05 5.3707e-07 2.05101e-07
6.98295e-06 -2.70366e-06 4.69677e-07
4.91958e-06 7.94257e-06 1.43332e-06
-8.73334e-08 -6.18858e-06 0.000431357
-1.85127e-06 -3.78455e-06 -1.57776e-08
-1.03074e-05 -2.45018e-06 8.94882e-08
4.88283e-06 -2.39569e-06 3.7364e-08
1.3788e-06 -9.50757e-06 1.1829e-08
2.12705e-06 9.31017e-06 -3.59713e-09
3.96773e-07 5.43447e-06 -1.00936e-08
7.85528e-07 -1.99898e-09 5.23352e-06
-6.19769e-07 5.79877e-06 -3.66884e-08
1.23933e-05 2.17179e-06 7.97251e-07
-0.000694211 -0.00010572 3.21353e-05
6.38208e-06 1.47649e-06 1.39625e-06
-0.000653184 0.000389986 9.25456e-05
1.02757e-08 -5.34678e-08 7.87831e-05
4.5437e-07 -3.62876e-07 -1.63321e-09
-8.95765e-06 5.63571e-07 7.57739e-08
9.46446e-06 3.2446e-06 9.87807e-08
1.7086e-06 -3.11597e-06 2.42055e-09
7.65913e-06 -8.78687e-08 -1.9706e-05
1.97984e-06 -3.31322e-06 1.52165e-08
-2.12699e-05 -2.29768e-07 1.6215e-05
2.96126e-06 -2.22552e-07 2.48918e-08
5.6674e-06 -2.65492e-06 1.20086e-07
-1.94419e-05 2.91434e-06 -1.38569e-06
-5.68779e-06 -1.08991e-05 -1.39883e-06
0.00124753 -0.000497848 0.000238476
8.26944e-05 3.21256e-05 -6.92216e-05
-0.00057831 -3.28363e-05 0.00104631
-3.3387e-09 2.63547e-06 4.34905e-07
3.13764e-07 -8.77788e-07 -8.74296e-09
-9.9073e-06 1.09727e-07 7.82693e-08
7.67666e-06 2.29082e-06 9.62271e-08
6.67052e-06 1.21176e-06 9.5502e-08
2.90273e-06 5.01198e-07 4.86224e-08
9.57379e-07 -1.54659e-05 -2.06554e-07
5.71492e-06 -2.06219e-06 1.2614e-07
1.04646e-05 8.74847e-06 8.34501e-07
5.67824e-06 -4.44092e-06 1.72829e-06
-9.02641e-10 2.48949e-07 -9.94904e-06
-1.37543e-05 -1.42323e-08 -1.43861e-05
-6.2075e-07 -4.59407e-07 -8.41371e-09
-7.34676e-06 7.17951e-09 2.23654e-08
8.17853e-06 -2.10908e-06 3.42584e-08
4.16291e-06 6.60397e-07 6.59675e-08
3.9042e-06 5.97093e-06 1.5783e-07
9.18285e-06 3.03351e-05 1.01454e-06
1.12444e-05 -7.77157e-08 3.84228e-07
5.25892e-06 1.50825e-07 -1.67227e-05
1.41294e-06 -3.76686e-05 -1.523e-06
-0.000182363 -2.21408e-05 0.000191754
-0.000287406 -6.89383e-05 -0.000134875
3.09772e-09 -1.15521e-06 6.60234e-06
-7.2725e-07 2.53205e-05 1.51299e-06
7.8939e-06 4.45592e-05 2.74808e-06
1.40398e-05 2.98458e-07 0.000120199
2.95708e-07 -1.68053e-05 -1.06819e-06
5.87549e-06 1.14942e-07 1.92627e-05
2.04595e-06 3.00373e-06 2.30728e-07
-3.7773e-06 3.85824e-08 7.47696e-06
5.51013e-06 3.40615e-05 2.2678e-06
6.17434e-06 9.60075e-07 2.80135e-07
2.97317e-06 -3.51122e-06 -6.26627e-08
-2.33953e-06 -5.3205e-05 -2.16161e-06
1.29895e-08 -8.21385e-06 -4.40071e-05
7.62181e-06 1.58244e-05 4.27956e-06
3.64455e-06 7.57597e-06 1.20447e-06
4.82065e-06 9.91673e-07 2.62522e-07
2.98416e-05 2.92256e-05 5.83644e-06
6.25562e-06 2.54234e-06 8.85387e-07
2.09866e-05 -5.58105e-06 1.16904e-07
3.32459e-06 -2.87455e-06 -2.8093e-07
0.000164046 8.34501e-06 0.00076511
-3.04633e-05 6.8478e-07 1.58936e-05
-4.28966e-07 -1.54498e-06 -0.000193456
-7.93188e-06 0.000150726 -1.8726e-06
-2.28741e-05 0.000105381 3.98495e-05
0.000223606 -5.61388e-05 6.13215e-05
-2.6298e-05 0.000255364 0.000592557
0.000170867 -0.000469359 0.000298558
-4.18836e-05 2.06287e-05 -0.000142682
-0.00028877 -0.000817516 0.000970644
4.32618e-05 -0.000120614 8.56774e-05
0.000107468 0.000380058 0.000261905
-9.1289e-06 -1.30154e-05 1.96777e-06
-5.69225e-06 -6.47712e-06 1.3456e-07
-8.43175e-06 -5.51631e-06 2.31698e-07
-6.30824e-06 -4.76611e-06 8.24255e-08
-3.66237e-06 1.98614e-07 1.69555e-08
-2.49589e-05 -4.15598e-07 3.99484e-05
-1.1057e-05 3.51951e-05 4.28883e-07
-2.71674e-06 -9.44199e-08 5.57587e-06
2.33698e-06 3.5116e-06 2.69262e-08
-3.51452e-07 -1.1756e-08 7.68248e-07
-9.76988e-07 -3.73884e-05 -5.0687e-07
-6.29007e-06 -1.49015e-06 8.19508e-07
-5.84016e-06 -4.62615e-06 9.35051e-08
-2.79832e-06 -1.87907e-06 8.20554e-09
-4.33074e-06 -3.12484e-07 1.3698e-08
-5.24204e-06 1.19385e-05 1.4e-07
-5.77503e-06 8.91988e-06 8.40245e-08
-1.93325e-06 1.83712e-05 1.93921e-07
4.90972e-06 1.20974e-06 7.98605e-08
-2.15806e-05 -7.92511e-07 -5.18081e-05
8.70756e-06 9.02532e-06 4.2813e-07
-0.000252576 -3.64119e-05 8.94861e-05
-1.71331e-05 -1.54225e-05 -2.86978e-07
-2.13442e-06 -5.98735e-06 9.95301e-08
-7.50751e-06 -2.24166e-06 6.16614e-08
-4.0059e-06 -2.23941e-06 -8.71118e-09
-2.59603e-06 -2.15084e-06 -9.96512e-09
-3.479e-06 3.74388e-07 -4.93949e-10
-3.58325e-06 2.67983e-06 -6.75982e-10
-5.40364e-06 8.71943e-07 -8.3448e-08
-6.80803e-06 4.64109e-06 -1.06528e-07
-1.64955e-05 -4.01135e-06 -1.69394e-07
5.11192e-05 -1.42855e-05 7.73401e-05
-1.52367e-08 8.35221e-06 -0.000484046
2.03502e-06 7.69902e-06 -1.67265e-07
-5.87976e-06 -3.98953e-06 5.80456e-08
-3.10178e-06 -3.76278e-06 1.26867e-08
-2.06676e-06 -3.0947e-06 1.10231e-08
8.45662e-07 -2.84813e-05 2.13409e-07
-1.13174e-06 2.22176e-05 -2.73437e-07
3.26661e-06 -1.10986e-05 2.05122e-07
-9.52069e-06 -8.8394e-06 2.38574e-08
-1.93156e-05 -7.8779e-06 -2.414e-08
-4.44553e-08 2.50876e-05 -0.000345128
0.000167345 -1.28639e-06 -0.000108835
-2.22546e-06 -4.42157e-06 3.21459e-08
-6.44279e-06 -2.02996e-06 4.78288e-08
3.3751e-06 -3.94707e-06 1.58019e-08
-1.17022e-06 -5.39937e-06 3.4899e-08
-8.9286e-07 -3.41218e-06 2.18779e-08
7.62054e-07 -4.90505e-06 5.50283e-08
4.96535e-06 -5.57323e-06 1.50267e-07
-6.09195e-06 -1.2403e-06 -1.49459e-07
-1.00576e-05 -4.77133e-06 3.30054e-07
-0.00139632 0.000480248 -0.000586237
2.19045e-10 6.14776e-08 1.16018e-06
0.000255288 -1.97458e-07 3.76336e-05
-2.61203e-06 -5.6198e-06 6.81607e-08
-5.4505e-06 -1.95392e-06 3.18817e-08
4.62302e-06 -1.03405e-06 -8.26988e-09
1.93685e-06 -2.72783e-06 4.29604e-09
-1.70919e-06 -1.58019e-06 -1.66008e-08
2.86022e-06 -2.40857e-06 1.12778e-08
-2.34309e-06 -2.78159e-06 -7.24489e-08
3.10876e-08 -1.80675e-06 -1.56076e-05
-9.54284e-06 -3.27069e-06 -2.55621e-07
-7.61594e-10 5.43133e-08 8.76885e-06
-0.000104504 -1.39378e-07 1.18861e-05
-2.54026e-06 -3.74872e-06 -1.18441e-08
-5.86019e-06 -1.34374e-06 3.04638e-08
3.18202e-06 -3.00265e-07 -1.23237e-08
-5.12826e-07 1.65698e-05 1.09155e-07
-2.62429e-06 -3.60749e-07 -2.01845e-08
-1.10592e-06 -2.81648e-09 1.15991e-06
5.0408e-06 -6.14587e-05 -7.15834e-07
5.245e-06 7.5726e-09 2.66473e-05
-2.37232e-06 -1.40493e-05 -1.92882e-07
1.98406e-05 0.0004487 6.64159e-06
3.59447e-06 1.26101e-05 1.40978e-07
-0.000179964 1.88931e-06 -1.57981e-06
0.0012866 0.000340771 0.00229009
-5.35579e-05 0.000139283 -0.000724256
1.71341e-09 6.04203e-06 4.45244e-05
-3.57753e-06 -1.28945e-05 -2.15187e-07
-1.40389e-06 -2.42102e-06 -2.22345e-08
-4.55725e-06 1.00657e-05 1.64039e-07
-3.73701e-06 1.21199e-06 3.1232e-08
3.50614e-05 -1.98286e-07 -0.0001703
-5.2742e-06 -1.08664e-05 -1.0183e-07
-2.94091e-06 4.40365e-06 -2.90229e-08
-2.74728e-06 -5.66766e-06 7.69197e-09
-1.92551e-05 -5.83619e-05 1.01791e-05
7.21561e-08 8.59201e-06 5.38408e-05
-9.16e-06 -1.51372e-05 -1.72458e-06
-4.97095e-06 -1.15944e-05 -7.98361e-07
-5.08226e-06 -4.02956e-07 1.4815e-08
-7.00428e-06 -2.25036e-05 -2.02968e-06
2.74364e-05 -2.10488e-07 -0.000466979
-6.04081e-06 -1.10799e-05 -9.80235e-07
-3.64836e-06 -4.47863e-06 -5.13691e-07
-1.12336e-06 -1.58161e-06 -1.78053e-07
0.000136483 0.000122009 -1.10621e-05
7.75141e-07 -3.44374e-05 -0.000268458
-2.40113e-06 -1.20296e-07 4.48164e-05
-0.00516097 -0.00180597 0.0071367
0.000102145 -0.000250251 8.60208e-05
-0.001973 -0.00332635 0.00506924
0.000122034 0.000376697 5.97768e-05
-0.000308727 5.7267e-06 0.000196237
9.32447e-05 -2.49424e-05 -3.55386e-05
0.000349194 -3.67414e-05 -0.000427247
1.22307e-07 9.72856e-07 -1.08652e-07
2.82774e-06 4.6057e-06 -1.38349e-07
3.83352e-06 2.67997e-06 -1.40755e-07
3.1477e-06 4.98856e-07 -5.91557e-08
5.60881e-06 8.29305e-06 -1.58148e-07
-4.23101e-06 -6.4569e-08 3.83564e-05
-2.73479e-06 7.2017e-05 -3.93235e-07
-6.55474e-06 -4.5126e-07 -9.32736e-05
1.04781e-05 4.65669e-06 -3.48446e-07
3.69075e-06 -3.29573e-05 4.8191e-07
4.01229e-06 2.34323e-06 -1.4574e-06
5.5879e-06 6.64869e-06 -3.24842e-07
-4.10578e-06 2.38784e-06 2.45976e-08
4.50849e-06 1.85757e-06 -3.08064e-08
4.30414e-06 8.84552e-06 -1.79099e-08
3.94948e-06 4.02812e-06 -1.10059e-08
2.69994e-06 1.00189e-05 2.81714e-08
5.73298e-06 -7.6668e-07 -1.52608e-08
1.3481e-05 3.36102e-06 -3.76822e-07
1.39622e-05 1.59653e-05 -2.83015e-06
1.4924e-06 5.14099e-06 -1.29509e-07
2.30401e-06 4.7499e-06 -6.43618e-08
4.94706e-06 3.07306e-06 -2.61239e-08
2.58641e-06 3.32592e-06 -3.94766e-09
3.95866e-06 -1.43522e-06 -2.36652e-08
4.25383e-06 1.35601e-07 2.27718e-09
3.62289e-06 -2.85036e-06 -4.7014e-09
9.59438e-06 1.08051e-07 -1.47366e-07
5.95701e-06 -1.35455e-05 -7.60729e-07
3.45502e-07 -6.68302e-05 -0.000438322
6.12849e-07 4.50298e-06 -1.22994e-07
-3.37722e-07 2.2811e-06 -2.07139e-08
3.78674e-06 2.61981e-06 -3.7041e-08
1.627e-06 2.04497e-06 -1.54451e-08
1.18238e-06 4.33304e-07 -5.37021e-09
-2.26647e-07 1.4632e-05 -2.2924e-07
1.14874e-06 5.5857e-06 -6.08421e-08
6.95442e-06 2.483e-06 -9.9178e-08
6.63877e-06 -2.82519e-06 -8.72055e-07
4.82771e-07 -7.0766e-05 -0.000787091
0.00034558 -1.86918e-06 0.000206105
3.74464e-06 5.17313e-06 -1.44066e-07
1.53755e-06 3.8244e-06 -5.31498e-08
-2.16264e-07 4.07176e-06 -4.24122e-08
2.27323e-06 4.23742e-06 -4.59495e-08
-1.76974e-07 -1.49152e-05 1.9792e-06
2.61031e-06 3.69404e-06 -5.78973e-08
1.00127e-06 4.2377e-06 -4.28102e-08
1.5386e-06 3.65552e-06 -3.2677e-08
2.764e-06 2.813e-06 -6.74727e-08
7.16716e-06 -5.04166e-06 -7.15659e-07
1.40668e-07 -6.37983e-06 -0.000198867
2.28661e-06 4.49881e-06 -1.09092e-07
2.70842e-07 2.71695e-06 -2.17081e-08
-2.23787e-06 3.53587e-06 -9.84471e-09
1.39537e-06 4.19332e-06 -2.06443e-08
3.63715e-06 2.90249e-06 -1.74428e-08
-1.26696e-06 -2.33225e-06 -2.27221e-08
1.96486e-06 3.65315e-06 4.27105e-08
-4.12728e-05 -1.37183e-06 1.34776e-05
8.17055e-06 1.04884e-06 -6.86161e-08
-0.00195023 -0.000100981 0.000249164
-0.000460767 0.000110887 0.000288483
6.05483e-09 -4.95314e-06 1.54367e-05
2.24401e-06 3.91713e-06 -1.69018e-08
1.9096e-06 2.70236e-07 -1.68985e-08
4.70817e-07 -5.64211e-06 -1.83524e-08
6.49855e-07 2.17536e-05 6.92085e-08
-1.28436e-07 -1.29873e-09 5.83822e-06
1.37814e-06 2.36453e-05 6.97916e-08
3.39429e-06 7.10859e-08 7.15893e-05
2.78196e-06 -2.18163e-06 2.93874e-08
2.01516e-06 7.39481e-06 7.45896e-09
1.70874e-06 1.1101e-06 -1.32214e-08
4.88787e-06 1.49684e-05 -8.78915e-07
1.83474e-09 2.48509e-07 -5.20282e-06
1.67902e-06 7.2805e-06 -1.87548e-07
4.6383e-06 1.34128e-05 -4.60728e-07
4.28237e-06 1.27656e-05 -4.61859e-07
1.70615e-06 7.27957e-06 -2.65877e-07
5.66795e-06 7.14226e-06 -3.41778e-07
3.64642e-06 6.42819e-06 -2.43175e-07
4.46248e-06 5.85142e-06 -2.53296e-07
2.01907e-06 1.8643e-06 -1.44464e-07
3.96367e-06 -4.07633e-05 -1.08411e-06
-2.07263e-07 2.15782e-05 -0.000245376
6.46883e-05 -6.21199e-07 -0.000145116
1.85308e-06 1.35876e-05 5.68972e-07
3.53767e-07 4.4525e-06 1.75983e-07
2.02343e-07 1.46146e-05 6.08719e-07
6.95145e-07 1.00866e-05 4.03608e-07
4.66743e-06 7.10122e-06 1.7613e-07
2.01976e-06 2.40992e-06 8.83118e-08
1.8073e-06 1.64048e-06 6.21817e-08
1.50123e-05 7.44703e-07 -0.000195881
-2.24704e-05 -0.000128526 -0.000111254
-7.79634e-05 0.000186115 -9.79383e-05
0.000337902 -5.6e-05 1.89292e-05
-8.5002e-06 5.23056e-06 -4.39864e-06
-1.97929e-05 0.00152465 -0.00533176
0.000472489 -4.99457e-05 8.26094e-05
-2.87149e-06 -1.14948e-06 2.34558e-07
-3.99067e-07 1.49024e-06 -2.62297e-08
2.90702e-07 -3.26302e-07 -3.37704e-09
-8.1349e-07 -6.81486e-06 7.84471e-08
-4.90588e-07 -2.3753e-05 2.33644e-07
9.47074e-06 1.52509e-07 0.000148011
-1.61706e-06 9.02005e-06 -5.35959e-08
-8.8682e-07 -4.44408e-06 7.81462e-08
-3.69731e-06 -8.63313e-06 2.66757e-07
2.53401e-06 1.3146e-06 -3.36116e-07
3.10927e-08 6.73386e-05 -2.75715e-05
2.29338e-07 1.95632e-06 -6.89903e-08
3.30124e-06 -4.38429e-07 -3.04089e-08
-3.26765e-06 -1.66362e-06 3.13119e-08
-2.55911e-07 -5.42329e-06 -5.46111e-09
-1.22162e-06 -6.71488e-06 -2.43455e-09
1.18271e-07 -2.6676e-07 -9.86764e-10
-3.00704e-06 -4.58008e-07 1.9204e-08
-8.45511e-08 1.61341e-06 6.2136e-09
4.93361e-06 9.0841e-06 -8.3055e-07
-8.38126e-06 -1.21043e-08 8.13454e-05
-4.18931e-07 -1.44261e-06 4.2141e-08
2.34811e-06 -3.58758e-06 3.37125e-08
-1.27869e-06 -2.95402e-06 1.91908e-08
-2.04377e-06 -3.16391e-06 1.40225e-08
-2.52617e-06 1.29461e-06 1.6134e-08
-2.83702e-06 -5.68975e-06 -1.93683e-08
-8.55675e-07 -2.44026e-08 -8.76974e-06
-1.39765e-06 -5.17611e-07 -1.3082e-08
-1.01685e-06 -2.65545e-06 9.28202e-09
4.84715e-07 -3.5641e-06 2.67446e-07
5.06322e-08 8.28438e-06 -2.15673e-05
-1.55569e-06 -2.49027e-08 8.76967e-06
-5.70678e-07 -8.80101e-07 3.23405e-08
3.4585e-06 -1.54453e-07 -1.64006e-08
-1.98791e-06 -1.28511e-06 2.12027e-08
4.76953e-08 -5.09115e-06 -1.35769e-05
-2.29621e-06 -1.07136e-06 9.14207e-09
-1.48824e-06 2.99172e-06 -1.68873e-08
-7.58046e-08 -3.02412e-06 1.44263e-08
-2.2425e-06 2.49514e-07 -1.73268e-08
3.18658e-07 4.48216e-06 -1.806e-08
9.39037e-07 2.31305e-06 -7.2828e-08
-1.1026e-06 -2.44568e-06 7.46772e-08
2.24767e-06 -3.15043e-06 3.11609e-08
-1.38064e-06 -2.45381e-06 3.54583e-08
-1.40495e-06 -1.58711e-06 1.86534e-08
-1.42164e-06 -1.97766e-06 2.51396e-08
-1.16911e-06 -2.09851e-06 9.35564e-09