<?xml version="1.0"?>
<VTKFile type="UnstructuredGrid" version="0.1" byte_order="LittleEndian" compressor="vtkZLibDataCompressor">
 <UnstructuredGrid GhostLevel="0">
  <Piece NumberOfPoints="1798" NumberOfCells="1798">
   <PointData>
    <DataArray type="Float64" Name="Elongation" NumberOfComponents="3"/>
1.55559e-05 4.40556e-05 0.000174377
-1.99277e-06 -1.25138e-07 3.16018e-06
2.46739e-08 -2.34729e-08 1.26089e-05
-3.06205e-05 2.53033e-05 -9.28263e-06
8.17289e-06 2.67327e-07 -3.30822e-06
5.26055e-06 -1.98121e-05 1.11177e-05
-2.39506e-05 6.09151e-05 -5.80641e-05
3.86223e-05 3.18191e-05 3.43437e-05
-1.19188e-07 8.59021e-07 -5.03643e-07
-1.62826e-05 5.22305e-05 5.58025e-05
9.24592e-05 4.06286e-05 -5.9664e-05
2.12468e-05 1.83155e-05 3.05404e-05
-3.28109e-06 3.96773e-06 -1.15209e-06
-1.15558e-06 1.09826e-05 2.70201e-06
1.07263e-05 6.92475e-06 -5.93122e-06
-7.86771e-06 -2.99731e-06 1.64293e-05
-5.02837e-06 1.73908e-05 -1.61235e-05
-2.77823e-05 -3.31276e-06 3.05766e-05
-4.03962e-06 3.39e-06 1.36489e-06
5.97387e-05 4.64779e-05 1.82844e-05
1.81489e-05 1.09232e-05 -4.16004e-05
7.02159e-05 -3.97674e-08 8.22456e-06
-4.36761e-05 -1.56246e-05 4.32531e-05
-0.000129335 2.7436e-06 9.01322e-05
5.57913e-06 1.87845e-05 1.34563e-05
-2.57669e-05 -1.13368e-05 8.5869e-06
-5.74729e-06 2.03377e-06 2.42014e-06
-6.36276e-06 3.67403e-06 2.09848e-07
-3.28746e-05 -5.46875e-06 8.52769e-06
-1.64881e-06 8.54653e-07 2.01733e-06
-4.32857e-06 5.32852e-07 2.25083e-06
9.66938e-06 1.12e-05 -1.82834e-07
-1.33036e-06 -7.45868e-07 1.16887e-05
-2.25187e-05 1.88899e-05 4.5282e-05
-1.79607e-05 4.08919e-05 -6.25322e-05
-1.86495e-05 2.04244e-05 5.00611e-05
2.79489e-05 3.05328e-05 -8.69203e-07
5.61212e-06 2.3286e-05 -1.55141e-05
7.68085e-05 1.76168e-05 8.90576e-05
-0.00048318 -7.05022e-05 0.000422555
-0.000140874 -0.000148951 -2.76122e-05
3.12768e-05 0.000123076 0.000111171
-0.000109479 0.000175361 -8.71035e-05
-1.92411e-05 4.77362e-06 2.06831e-05
-3.45293e-05 1.38097e-05 -1.7746e-05
-5.8916e-06 3.90355e-05 5.30637e-06
1.40298e-05 -3.71073e-05 2.83518e-05
-0.000209536 9.11026e-05 0.000289323
0.000180441 1.20915e-05 0.000202286
2.61705e-06 4.06248e-07 -3.41474e-06
4.11777e-05 -4.91586e-05 9.92586e-05
-0.000124158 0.000208236 9.96558e-05
-3.48266e-05 -3.20919e-05 8.61248e-05
-2.59815e-05 2.58449e-05 6.32946e-05
-1.02006e-05 1.5869e-05 -3.50041e-06
0.000145771 -4.72216e-06 -0.000198604
2.19372e-05 5.76191e-05 -4.89122e-05
-6.39734e-06 -2.55643e-05 1.15632e-05
2.07745e-05 -2.06915e-05 3.91746e-05
7.08505e-05 5.90448e-05 0.000122918
5.59466e-05 0.000166999 -0.000164255
0.000244202 0.000221298 0.000359831
1.40891e-05 2.2562e-05 2.56397e-05
1.06155e-05 -0.000170021 0.000171536
0.000177101 5.31477e-05 0.000242866
4.43972e-05 2.4995e-05 3.48281e-05
-9.40225e-06 -6.65167e-06 1.01876e-05
-2.24048e-05 -1.66621e-05 -4.88682e-07
-2.27587e-05 -2.12085e-05 -2.65247e-05
-1.51959e-05 7.38429e-06 8.55941e-06
6.45294e-06 -1.34852e-06 -4.77552e-06
-2.46816e-05 0.000180046 -0.000159652
-0.000193767 0.000123031 0.000274636
-0.000451905 -8.51386e-05 0.000388597
0.000261298 -0.000114041 0.000287998
0.000106437 9.88508e-05 0.000157375
-4.07062e-06 2.01402e-07 2.5282e-06
-1.69378e-05 2.99699e-06 1.16229e-05
8.52647e-06 1.93304e-05 1.95638e-05
4.09293e-05 -1.41987e-06 -3.64071e-05
-1.01825e-05 -4.53398e-05 2.86504e-05
9.33077e-06 1.26675e-05 1.7215e-05
-5.81901e-05 1.1063e-06 8.13085e-06
8.85684e-06 -7.2711e-05 4.92433e-05
8.64438e-06 4.50315e-05 3.0712e-05
1.69914e-05 -1.71719e-05 -4.67463e-05
9.35221e-05 -0.000106753 -3.80978e-05
3.82944e-05 5.0559e-05 9.00054e-06
-1.97106e-06 1.53222e-05 2.98513e-06
-6.32113e-05 1.30973e-06 0.000127144
-6.3385e-05 -6.95245e-05 0.000146505
0.000139858 6.46639e-05 0.000238213
6.07084e-05 0.000314852 -0.000249143
-1.94543e-05 -1.80703e-05 -1.21426e-05
7.8773e-06 3.65538e-05 3.43279e-05
0.000141985 6.92333e-05 -0.000171109
3.6466e-05 -2.47029e-05 -4.79487e-05
-5.01586e-05 -4.23213e-05 -5.08331e-06
-0.000239208 1.58636e-05 0.000195286
7.60714e-06 -3.44283e-06 8.77528e-06
1.07517e-05 3.40891e-05 3.89614e-05
5.56078e-06 1.20037e-05 3.52015e-06
-5.6942e-05 7.47245e-06 3.42859e-05
0.000115552 -0.000194489 0.000152049
3.13041e-05 3.23884e-05 -1.63552e-06
-2.61913e-05 2.95038e-05 -1.52372e-07
5.76537e-06 1.41031e-05 1.17718e-05
1.88155e-05 -3.80101e-06 2.40057e-05
-3.95989e-06 4.8978e-07 6.73218e-06
-4.34732e-05 4.89511e-05 0.000308706
0.000116763 0.000111022 -0.000153226
3.4548e-05 2.57821e-05 3.45792e-05
-6.35598e-06 8.83947e-06 1.58357e-05
-8.29325e-06 1.4331e-06 -8.03641e-06
0.000142443 0.0002408 -0.000162314
9.61613e-05 0.000128983 0.000174305
-1.41095e-05 -2.42774e-05 7.20187e-06
-3.12325e-06 -4.69549e-05 0.000110027
0.000136177 5.48447e-06 0.000512772
-4.14812e-05 -1.45131e-05 2.70272e-05
1.83535e-05 2.99121e-07 -5.85695e-06
8.20484e-05 -5.19254e-05 0.000163139
0.000121085 0.000166719 0.000323435
9.55455e-06 -1.06098e-05 6.63744e-05
1.0037e-05 1.21366e-05 8.43877e-06
-1.20721e-06 2.08424e-06 4.72306e-06
-5.37023e-07 1.53813e-05 1.5836e-05
8.45516e-06 -1.22516e-05 4.92778e-05
-1.13022e-05 2.08939e-05 3.20072e-05
2.94833e-05 7.72456e-06 1.67925e-05
-3.01721e-06 -6.62637e-05 9.39628e-05
1.47462e-05 2.65688e-05 4.40949e-05
-1.16944e-05 8.66435e-05 7.81334e-05
6.2488e-05 -8.90258e-05 0.000118981
4.5954e-05 -4.16112e-05 8.11134e-05
-2.81858e-05 -0.000208774 -0.000277419
5.69978e-05 7.58056e-05 -2.27187e-05
2.33053e-06 3.20818e-07 -1.62581e-06
-3.08653e-05 -3.56084e-05 1.5651e-05
9.51925e-06 3.09327e-05 2.14698e-05
2.21341e-06 9.34277e-07 6.50369e-06
3.15803e-05 -1.58487e-05 7.02203e-05
-9.19053e-06 -5.18449e-06 -8.10761e-06
-0.000108701 2.22627e-05 -3.08786e-05
-7.37522e-07 1.00733e-05 -3.85785e-05
-4.02522e-05 1.13413e-05 0.000116426
4.50577e-06 1.12278e-05 1.69821e-05
-1.38123e-05 -2.67842e-05 3.33939e-05
1.59336e-05 -2.65015e-06 2.06375e-06
-1.31358e-06 5.39808e-07 -2.32911e-05
-8.93281e-07 -2.01542e-06 5.35153e-06
1.14658e-05 -5.10638e-06 -1.73343e-05
4.42484e-06 1.01654e-05 -1.72939e-05
1.86197e-05 -8.36899e-06 5.19127e-05
-1.12429e-05 5.28973e-05 -6.99362e-05
-4.10994e-05 -1.63641e-05 -8.74662e-05
5.34975e-06 -2.62232e-05 1.05323e-05
1.03695e-05 -1.26733e-06 3.34525e-06
6.65191e-06 -4.54491e-05 0.000103653
1.79479e-05 3.22624e-05 2.40312e-05
4.23677e-06 -1.18431e-05 -2.12295e-06
1.09193e-05 -4.88335e-06 -2.0424e-05
-2.22005e-05 4.74631e-06 4.88557e-05
7.71897e-05 3.40166e-05 2.10198e-05
1.69314e-05 4.80544e-06 -2.9169e-05
6.67264e-05 3.74658e-05 1.13199e-05
0.000164286 6.07101e-05 6.27761e-05
-6.56741e-05 5.60444e-05 -2.41799e-05
2.93808e-06 2.83733e-07 -1.71429e-05
1.25321e-05 7.68771e-05 2.95069e-05
7.38771e-06 8.7442e-06 -2.01526e-05
2.64507e-06 -2.66746e-05 3.58294e-06
1.45262e-05 -1.6583e-05 8.92901e-06
-6.17807e-06 7.2589e-06 2.11063e-05
-7.26238e-05 -7.81769e-06 2.15169e-05
3.95294e-05 -7.49451e-05 4.15778e-05
3.14356e-05 1.80554e-06 -6.30975e-06
5.81265e-06 1.36784e-05 -2.61035e-05
4.72357e-05 -7.34028e-05 1.36783e-05
2.80858e-05 1.5342e-05 -3.84312e-05
4.79586e-07 5.4112e-06 7.81196e-07
5.39701e-05 -4.3154e-05 -6.29577e-06
6.71994e-09 -7.50376e-09 -2.27482e-08
7.10566e-05 -1.99255e-05 0.00010639
1.66306e-05 7.68513e-06 -4.60276e-05
5.71679e-05 3.23322e-05 -9.21675e-06
9.22804e-05 0.000105312 8.25697e-06
-3.50437e-05 -4.06286e-05 -0.000124056
0.000456584 -1.73797e-05 2.05526e-05
6.1952e-06 2.09279e-05 1.09057e-05
-6.06194e-05 1.92e-05 1.30262e-05
1.15087e-05 -8.95477e-05 -2.85712e-05
6.81512e-06 1.91382e-05 -1.5281e-05
2.69414e-05 -1.60403e-05 1.79349e-05
2.90988e-05 4.17101e-06 -5.85359e-06
-1.73242e-05 -2.50191e-06 -9.92268e-06
8.08374e-06 1.20446e-05 -9.05448e-06
1.11543e-05 -1.62008e-05 4.37311e-06
-3.30878e-05 5.39329e-05 7.64376e-05
-4.35815e-06 1.3411e-05 -3.12145e-05
4.41502e-06 2.7551e-06 8.29913e-06
-6.65778e-05 -1.32546e-07 5.82455e-05
-2.23956e-05 -1.34914e-05 -1.18718e-05
-2.96501e-05 -2.14942e-05 -6.06512e-05
-5.96523e-06 3.40502e-05 -2.03361e-05
-2.37054e-05 -3.98618e-05 -9.43614e-06
9.56391e-06 -1.0247e-05 1.81422e-05
-7.56776e-06 -1.07754e-05 -1.80768e-05
-0.0001285 -2.48993e-06 0.000136289
-5.58959e-05 -6.9812e-05 -9.33629e-05
9.7594e-06 -2.76021e-05 -4.41234e-05
2.14041e-05 0.00014344 -0.000311089
0.000386816 -0.000154127 0.000127807
-8.73245e-05 4.44056e-05 -6.1285e-06
2.2696e-05 2.88221e-05 -4.28531e-05
2.50623e-05 1.10527e-05 4.157e-05
5.21648e-05 -3.9536e-05 4.64459e-05
-5.65477e-06 1.03451e-05 -1.00855e-05
-0.000151369 -0.000106739 1.39299e-05
3.22078e-07 6.49534e-06 7.72526e-06
-4.68262e-05 1.62612e-05 1.95813e-05
-1.74339e-05 -4.43664e-05 -2.83192e-05
-3.74426e-05 0.000167608 -0.000163752
-0.000108811 8.99411e-05 3.48709e-05
5.42652e-06 2.54044e-06 2.38398e-06
-2.04808e-05 5.60941e-05 2.32268e-05
-8.65295e-06 1.13369e-05 2.56268e-05
-0.000121439 8.27165e-05 -0.000360054
-2.19755e-05 1.0321e-05 -0.000104606
1.51181e-05 1.75579e-05 2.4725e-05
-1.17447e-05 2.46701e-05 -6.83243e-07
-8.50738e-05 0.000139062 -0.000142775
-2.25656e-05 3.71334e-05 -1.282e-05
-6.47066e-06 -4.16413e-06 2.14661e-05
1.77253e-05 9.40726e-05 -0.000126725
7.05396e-05 1.28775e-05 -1.69203e-05
3.50732e-06 2.93199e-05 -8.55256e-06
-0.000111037 5.76958e-05 0.000127962
-0.00015242 0.000173875 0.000154907
1.77599e-06 1.35604e-05 8.10433e-07
-1.18276e-05 4.30694e-05 7.43689e-06
1.86006e-05 1.30277e-05 -1.23496e-05
8.88919e-05 0.000181381 0.000131641
2.89353e-05 0.000166919 5.57738e-05
-0.000147226 -0.000128197 0.000237401
-6.99123e-06 0.000110608 0.000105581
-2.32653e-05 -9.92955e-06 -7.59205e-06
4.86799e-05 1.69896e-05 5.62076e-05
-1.22177e-05 -6.58259e-06 3.58533e-06
-2.56413e-05 -1.77046e-06 -9.8116e-06
-3.94181e-05 3.28109e-05 3.58809e-05
-1.12008e-06 -0.000121884 0.000853129
9.85329e-05 -0.00033777 0.000247842
9.85696e-05 -2.63681e-05 -0.000100742
2.52912e-05 0.000110623 0.000168964
-2.63347e-06 -6.03325e-06 7.33643e-06
-2.10581e-05 -1.02042e-05 1.35349e-06
0.000118502 5.51038e-05 -0.000218341
-9.80918e-06 3.33313e-06 -2.73518e-05
1.13099e-07 1.20838e-05 -5.1868e-05
-5.35782e-06 -4.45832e-06 -2.70891e-05
3.03925e-05 -5.19938e-05 4.099e-05
1.49912e-05 2.82662e-05 2.17148e-05
1.06007e-05 9.56123e-06 8.34442e-06
-2.96698e-06 1.21293e-05 2.20219e-06
-5.19665e-06 6.84778e-06 3.83832e-06
6.06429e-06 4.30386e-07 3.66713e-06
3.98265e-07 -3.96501e-06 -1.17442e-05
1.25076e-05 8.34663e-06 -2.09308e-05
-7.41901e-06 1.30212e-05 -1.87465e-05
-2.94195e-06 -3.27189e-06 -6.22937e-06
-5.88837e-06 1.75674e-05 4.60234e-06
4.24002e-06 -9.26015e-06 -3.83015e-06
1.75332e-05 4.81922e-05 3.20769e-05
8.77269e-06 -0.000191244 0.000504598
1.82921e-06 6.48006e-06 2.52744e-06
0.000131183 7.30953e-05 -6.784e-05
5.33538e-05 3.67611e-06 2.91758e-06
8.33114e-06 -7.51869e-07 0.000213832
5.29365e-06 2.02766e-06 1.4392e-05
9.61158e-06 2.1037e-06 -2.65454e-05
1.14022e-05 1.54943e-05 5.42276e-05
-0.000108668 8.16397e-05 -0.000259181
2.195e-05 3.09114e-05 -7.74007e-05
6.00565e-05 -5.91526e-05 -0.000119065
1.03783e-05 9.02689e-06 -7.62569e-06
-2.18569e-06 -5.35775e-06 -4.85078e-06
6.70633e-06 -5.47754e-05 -1.20561e-05
5.16564e-06 4.12022e-05 -0.000226331
-5.17667e-05 -1.24352e-05 4.07121e-05
9.91565e-08 4.926e-08 -6.71581e-07
7.18275e-06 -8.97404e-07 4.58278e-05
1.37576e-05 -5.40575e-10 -5.39532e-06
6.15839e-06 -2.29872e-06 -2.52146e-06
4.40104e-06 8.76778e-06 -2.43415e-05
-5.31008e-07 2.41543e-07 -1.72534e-07
3.59656e-06 -6.8619e-07 1.19389e-06
4.89041e-06 1.53445e-05 1.78018e-05
7.62555e-07 -1.68497e-05 1.47802e-05
-1.12391e-05 1.20329e-05 5.68769e-05
-5.16241e-06 -1.18696e-05 2.44968e-05
8.00915e-06 1.42651e-05 1.73652e-06
-1.47529e-05 2.47791e-05 1.66454e-05
-1.42264e-05 6.33261e-06 -7.2046e-06
-7.86648e-05 3.94389e-05 0.000148454
8.84665e-07 1.1134e-05 -4.58808e-07
5.50055e-05 9.08777e-06 0.000118644
-9.03762e-06 -2.90295e-05 -1.99972e-05
-2.67946e-06 -1.76723e-05 7.97253e-06
-5.13084e-06 5.06308e-05 6.82939e-05
-8.56302e-06 -8.82026e-06 -1.87558e-05
-2.46921e-05 -4.48476e-05 -2.32899e-06
1.63865e-05 2.77956e-05 -1.47852e-06
1.06254e-06 5.09374e-07 1.69246e-07
-7.67722e-05 -4.42513e-05 7.05747e-05
-6.03404e-05 6.71409e-06 4.66543e-05
-9.1615e-06 -1.27713e-06 -2.95374e-06
3.70447e-05 -1.01563e-05 -1.00202e-05
4.20236e-06 9.9586e-07 3.23105e-07
-2.03352e-05 2.7001e-06 1.22838e-05
-5.02722e-06 -1.85463e-05 2.36615e-06
4.09881e-07 -1.00824e-05 -9.36732e-06
1.11581e-05 -3.67732e-06 -5.35849e-06
3.91838e-06 7.9353e-06 1.05978e-05
1.42669e-05 -1.77588e-05 1.69729e-05
-8.31514e-05 8.98932e-05 1.85954e-05
1.51691e-05 -1.36394e-05 4.67751e-06
9.16709e-06 4.10969e-06 0.000205564
2.81549e-06 -1.28512e-05 -1.43705e-05
7.34505e-06 1.33257e-05 -1.51882e-05
-5.06515e-05 4.4709e-05 -9.295e-06
-2.36919e-05 1.17238e-05 3.35118e-05
3.96006e-05 -1.9938e-05 -2.53947e-05
-3.67987e-05 2.51541e-05 -1.84744e-05
7.59628e-05 -8.30935e-05 -0.000155806
-8.72717e-05 2.67923e-05 -0.000159564
-2.05602e-05 2.46661e-06 -3.23225e-06
1.24609e-06 6.63583e-06 -1.54098e-06
-9.52866e-05 8.11705e-06 -5.25731e-05
-3.90389e-05 -1.1591e-05 -5.91831e-06
1.82757e-05 -7.17136e-06 -2.39482e-05
2.51675e-05 -2.94807e-05 5.10772e-05
-1.6294e-06 -1.99435e-05 1.63277e-05
-6.02326e-07 1.68513e-05 1.34462e-05
-0.000229052 -0.000100165 0.000501478
9.16176e-06 3.47085e-06 -1.69221e-05
0.00015712 1.03007e-05 2.31919e-05
-0.000144807 0.000140795 -0.000223015
-2.10414e-05 -1.85592e-05 2.66637e-05
5.47816e-06 2.48568e-05 3.53281e-05
4.32969e-06 -4.74045e-05 -4.96645e-05
-3.38646e-05 1.22073e-05 -4.35181e-05
-3.93173e-05 0.000165675 0.00019882
-5.53356e-05 2.31234e-05 -0.000110817
3.87096e-06 4.4988e-06 5.93796e-06
-1.14269e-05 -4.38771e-06 1.17529e-05
-6.51722e-06 -1.36214e-05 -2.03113e-05
1.85576e-05 7.60118e-06 4.12756e-06
0.000117342 2.27949e-05 -0.000233188
-2.03978e-05 -1.12254e-05 4.12632e-05
-2.34399e-05 5.60306e-06 1.30768e-05
5.85146e-05 -4.44486e-05 3.40188e-05
0.00012818 -2.26528e-05 0.000236451
-0.000179614 6.88927e-05 0.000123957
2.16308e-05 -1.54706e-05 6.74821e-06
-1.61965e-05 0.000108271 -5.33471e-05
1.94884e-06 5.28174e-07 9.55935e-07
0.00013381 -1.62647e-05 1.50656e-05
-4.23616e-05 -5.037e-05 7.50719e-07
0.000116854 2.83976e-05 4.77665e-05
-1.80997e-06 -1.07217e-05 -1.01456e-05
1.00226e-05 -1.44506e-05 1.87476e-05
1.07167e-05 2.04028e-06 1.30691e-05
0.000245772 0.000229873 -0.000211293
7.91006e-06 1.83323e-05 -7.7992e-06
-2.28909e-05 1.60402e-05 4.37853e-06
1.45911e-05 -7.90072e-07 2.53105e-05
-0.000120866 -5.19256e-05 -7.96038e-05
2.44729e-05 -2.55813e-06 -2.66895e-05
-8.77751e-05 0.000201771 -0.000258121
2.95603e-05 -6.482e-05 -0.000114641
-1.84067e-05 3.67418e-05 1.20434e-05
2.47082e-05 5.88097e-05 1.13246e-06
-5.73757e-06 -4.31692e-05 -3.31432e-05
-3.65073e-06 -1.29765e-05 -2.13364e-06
-0.000184856 -0.000131423 -0.000219411
0.000133727 0.000143737 -7.08465e-05
-3.99776e-05 -2.43366e-05 6.13485e-05
-2.06608e-06 6.07082e-06 -5.44528e-06
4.4605e-05 -3.44709e-05 2.04518e-05
-1.40154e-06 1.08499e-05 1.13137e-05
2.56653e-05 -7.50085e-07 -2.47842e-05
1.6148e-05 2.39708e-05 3.71275e-05
-1.88926e-06 2.97199e-07 1.15e-06
3.03978e-05 -1.39919e-05 -7.47833e-06
1.41089e-07 2.22647e-07 -1.18814e-07
-1.48002e-05 2.63122e-06 2.38909e-06
1.34781e-05 -2.17855e-05 -1.68934e-05
1.02903e-06 5.35677e-07 4.89269e-06
-2.22005e-06 5.87267e-06 5.06442e-06
2.2335e-05 -1.78698e-05 1.43386e-05
-8.86969e-06 3.01753e-05 -4.55313e-05
2.25008e-06 -1.43179e-06 8.23617e-06
5.88048e-05 -1.75169e-07 1.12357e-05
8.07843e-06 4.43995e-06 -1.7757e-06
-8.78429e-06 -3.46479e-06 -3.93352e-05
1.38218e-06 2.63631e-07 1.58592e-06
2.44738e-07 5.30826e-06 3.8435e-06
-4.23715e-06 1.23537e-06 -6.27708e-06
-1.09857e-05 5.11145e-06 1.61319e-05
-1.17434e-05 1.93517e-05 1.15696e-05
-4.20505e-05 5.12522e-06 3.3924e-05
-1.30546e-05 0.000167036 -0.000228443
1.08236e-06 7.44144e-06 5.64243e-06
3.04972e-06 9.52521e-07 -1.71328e-06
-3.45484e-05 -7.99382e-06 5.33327e-05
-4.57774e-05 -6.67546e-06 5.06807e-05
-0.000173369 0.000261568 0.000172141
1.17366e-05 7.25591e-05 -3.03738e-05
-0.000207957 -7.00447e-06 7.90022e-05
0.000265526 2.84445e-05 -9.87329e-05
-1.24127e-05 9.5799e-06 7.77812e-06
-7.7256e-05 -1.40708e-05 -2.80136e-05
1.77808e-06 4.10033e-06 -3.61611e-06
3.68819e-05 -2.06868e-05 -3.83874e-05
8.07592e-06 4.58408e-05 2.66952e-05
1.30224e-05 -1.81866e-06 -2.44191e-05
-1.11826e-05 1.88892e-05 1.01616e-05
1.73172e-06 6.01278e-07 -7.1527e-06
1.92447e-07 -3.63119e-07 5.20117e-07
-1.73359e-06 7.67437e-06 4.96873e-06
9.79381e-06 -2.65644e-05 7.73888e-06
7.88784e-07 1.67374e-05 -8.94357e-06
-5.17898e-06 1.76112e-05 2.95623e-05
3.7987e-06 6.34362e-07 -4.22808e-06
3.60087e-05 3.91161e-06 3.60106e-05
-5.36571e-06 -2.22103e-06 -1.65212e-05
-2.70536e-05 1.6061e-05 3.57138e-05
-7.16496e-06 2.37749e-05 -3.88186e-05
-1.93388e-06 -3.21702e-06 -7.42822e-06
8.73792e-05 0.000149692 2.13001e-05
-1.70505e-05 -2.45441e-05 3.87534e-05
8.97682e-06 -3.25953e-05 -2.07454e-06
-8.66621e-07 1.79338e-05 2.48329e-05
5.09227e-05 -1.36101e-05 -7.82518e-06
-7.17636e-05 5.3248e-05 -0.000183207
-2.84901e-05 -1.92226e-06 2.22264e-05
4.09993e-05 9.90581e-06 2.63015e-05
2.90034e-05 -8.37902e-06 -1.85187e-05
2.17446e-05 3.06439e-05 8.4727e-08
-6.75263e-05 5.25417e-05 -1.3692e-06
-5.38277e-05 4.82993e-06 -7.16354e-05
9.94075e-06 1.13018e-06 -4.68275e-05
-1.88394e-06 -1.55154e-05 5.7112e-05
-2.59455e-05 9.51334e-06 8.09825e-06
8.77842e-06 1.12993e-05 3.50864e-06
-8.80796e-06 -9.08692e-06 -2.89866e-05
-3.45999e-05 1.74492e-05 -4.75727e-06
4.01094e-06 9.85078e-06 -1.97095e-06
6.01267e-05 2.16993e-05 0.000103214
-6.12418e-05 -5.87955e-05 -3.83398e-05
-5.50667e-06 1.77143e-06 3.16487e-05
-2.33098e-06 -7.43869e-06 6.19297e-06
1.93031e-05 3.50126e-05 3.71991e-05
-0.00010923 -7.17199e-05 6.75944e-05
-1.29617e-05 3.09343e-05 4.52441e-05
-1.63875e-05 1.26062e-05 1.27476e-05
-4.55517e-05 -1.02104e-05 -7.69247e-05
4.33316e-08 -1.1573e-05 6.58524e-06
6.55232e-05 -4.91944e-05 -6.30878e-05
-0.000131136 -2.50758e-05 -2.22347e-05
-8.17821e-06 -0.000350983 0.00013144
5.76337e-05 1.38713e-05 2.68162e-05
-1.58308e-06 -9.54143e-07 -1.37901e-06
2.03396e-05 -4.58628e-05 -5.94467e-05
-3.60647e-06 -7.95872e-06 9.52876e-06
-0.000145978 4.7369e-05 -5.80525e-05
-5.0261e-05 -5.71755e-06 1.78275e-05
-9.64135e-05 -2.1756e-05 6.19904e-05
5.29172e-05 5.67976e-05 6.88096e-05
-8.3353e-06 1.95164e-05 -3.26812e-08
1.93784e-05 -2.69325e-06 1.70884e-05
-7.98117e-07 3.32616e-07 -3.71146e-06
2.52098e-05 1.35707e-05 -1.71589e-05
1.68432e-05 3.25096e-05 0.000153832
-2.67368e-05 1.6245e-05 6.06899e-05
-1.80557e-05 -5.95188e-05 -4.54072e-05
0.000160094 -5.88094e-05 1.94808e-05
8.03596e-06 -1.16635e-06 5.16625e-06
-1.45652e-05 -1.13497e-05 5.89683e-06
0.000167398 0.000110119 -0.000151343
-8.9182e-06 -1.12043e-06 -2.06893e-06
-2.48306e-06 -2.47208e-07 1.84939e-06
4.10399e-05 3.55358e-05 8.51109e-06
8.0983e-07 1.11507e-05 5.21457e-06
-2.72553e-05 5.57768e-05 1.93133e-05
-2.64209e-05 2.97367e-05 6.04027e-06
5.81813e-05 0.000122706 -0.000134333
2.71927e-05 -7.314e-05 -2.78117e-05
8.48567e-06 3.25565e-05 -1.79454e-05
3.78662e-05 -3.28416e-05 -4.74094e-06
1.99613e-05 2.89216e-05 5.1996e-05
5.04105e-05 -7.12366e-05 8.67087e-05
8.50233e-05 -5.06715e-05 -5.75127e-05
1.48186e-05 -5.23408e-06 -4.21195e-05
-0.000295964 -0.000123027 -0.000365926
0.000174304 -0.000151586 8.24457e-06
-1.81264e-06 -7.23273e-06 -3.15137e-05
-6.05292e-05 5.34177e-05 1.59676e-06
-3.34162e-05 8.63372e-05 6.39184e-05
-9.70913e-07 7.65128e-07 4.09675e-06
-2.1317e-05 1.10979e-05 1.30154e-05
-2.55379e-05 0.000229743 -0.0004404
-1.30402e-05 5.40918e-06 1.61063e-05
6.74429e-05 4.47183e-05 6.98818e-05
-2.19255e-06 1.66516e-06 6.08106e-06
-2.45386e-05 7.66633e-06 9.42861e-06
1.03952e-05 1.37048e-05 1.23854e-05
1.45636e-05 -3.0961e-06 -8.0686e-06
1.10647e-05 -7.60309e-05 6.93524e-05
2.70745e-05 3.09556e-05 3.19835e-05
-3.64004e-06 5.23535e-06 1.82894e-06
-7.81322e-07 -6.77207e-07 2.68091e-06
-9.63008e-08 -1.78911e-07 -1.21524e-08
-9.84707e-06 -2.68995e-06 -2.38806e-05
2.26249e-08 2.15681e-08 4.14947e-06
-9.0489e-06 -5.31768e-06 8.15785e-06
6.33087e-07 3.92239e-06 3.13191e-06
1.37812e-05 3.0114e-06 1.06711e-05
1.26471e-07 -8.50064e-08 -4.9216e-07
2.75062e-05 5.04671e-06 -8.5728e-06
0.000168547 0.000146289 -0.000189673
9.15267e-06 -2.62524e-06 -5.40975e-06
-6.90803e-06 1.3049e-05 5.8652e-06
-1.24928e-05 -2.89002e-06 0.000155206
1.02378e-05 2.43818e-05 -1.10957e-05
-4.18779e-05 -1.22545e-05 3.8305e-05
9.48637e-06 -2.53086e-06 -1.69567e-05
-5.91119e-05 0.000372264 -0.000144571
5.39683e-07 1.06388e-06 2.08437e-06
4.40599e-06 -1.30017e-05 2.006e-05
1.09293e-05 2.71431e-06 8.09653e-06
-2.98223e-06 -3.73543e-06 -2.49798e-06
1.76372e-05 -1.1794e-05 1.0839e-05
1.57942e-05 2.24175e-05 -8.72619e-07
-0.000141289 -5.71084e-05 0.000257378
-8.50534e-07 2.10799e-05 0.000101202
4.615e-06 1.33149e-05 1.23259e-05
-5.1532e-06 5.87424e-06 6.86874e-07
-2.95981e-06 -5.87772e-05 -5.46355e-05
2.58066e-05 -2.55753e-05 4.7396e-05
5.80897e-05 2.17216e-05 -6.32941e-05
9.41547e-06 1.13549e-05 1.03925e-05
1.83692e-05 3.04631e-06 1.60442e-05
3.33361e-06 -3.51569e-05 -1.78337e-05
-1.7575e-05 -8.04521e-06 -2.1674e-05
-2.20369e-06 -1.61312e-05 1.04147e-05
1.67072e-06 -6.47644e-08 -1.42275e-05
-6.02773e-05 -4.90022e-05 3.40489e-05
3.77772e-06 -2.09837e-05 2.12247e-07
3.31432e-05 -4.12312e-05 -5.10659e-05
5.41698e-06 3.96924e-05 -0.000235889
-2.33538e-05 -8.47097e-06 -2.65972e-05
2.52413e-06 -4.27445e-07 -3.19971e-06
-6.15641e-06 -1.3658e-05 1.41178e-05
-4.40449e-06 -2.15691e-05 1.00282e-05
5.07229e-07 -2.35733e-05 8.39609e-06
0.000651045 2.18713e-05 -0.000486756
-5.805e-06 -1.17071e-05 -1.43577e-06
2.6412e-07 -3.02831e-05 1.91504e-05
1.09904e-05 2.33428e-06 2.3153e-05
8.8919e-06 -8.55617e-06 -7.79885e-06
-1.27427e-06 -1.97297e-06 6.74731e-06
0.00013225 0.000278577 0.000305853
-5.67775e-06 -2.06887e-05 -1.7941e-07
4.25101e-07 -7.3783e-07 2.52211e-06
1.97628e-06 1.68975e-05 1.77971e-06
-1.47472e-05 -4.09183e-06 -6.06133e-05
5.52884e-06 8.58655e-07 -1.11916e-05
-1.52905e-05 2.11155e-05 -2.85521e-05
3.67385e-05 6.1375e-06 -1.24682e-06
-2.19588e-05 2.23732e-05 -2.32252e-05
1.12955e-05 -8.86132e-06 2.70275e-06
-7.7304e-07 -6.05224e-06 4.78145e-06
3.09983e-06 -1.13458e-05 4.48425e-06
-1.3979e-05 6.22884e-06 -1.20792e-05
2.92161e-06 6.44785e-06 -1.56177e-05
6.56075e-06 -2.04656e-05 -2.5854e-05
1.77977e-05 -6.2982e-07 -1.65588e-05
-1.11101e-06 4.04007e-06 -2.63645e-06
-5.88135e-06 8.54071e-06 -3.57838e-06
5.66578e-06 1.34479e-05 -7.97442e-06
-1.57923e-05 1.20928e-05 1.01626e-05
-6.00139e-08 -9.21941e-07 -1.16605e-05
7.78187e-05 2.05503e-06 -2.4145e-05
-2.19149e-06 2.73861e-05 4.87552e-05
8.45179e-05 9.12485e-05 1.56879e-05
-1.85557e-05 -6.58863e-05 4.32506e-05
7.19146e-06 5.89851e-06 1.12564e-05
-1.94078e-05 -1.90869e-05 1.66427e-05
6.6564e-05 5.99325e-05 9.06542e-05
-6.4015e-05 -1.94142e-05 0.00012968
1.52088e-05 -3.17336e-05 1.24442e-05
1.27205e-06 2.50676e-05 2.1471e-05
-9.19941e-07 1.12542e-05 3.28145e-06
-4.96201e-05 2.218e-05 -6.08403e-05
-1.88864e-05 -2.07791e-05 -9.13667e-06
4.45128e-06 -1.09897e-05 9.80794e-06
-1.88285e-06 -2.07586e-06 -2.41388e-06
5.44091e-05 -6.00919e-05 -1.7543e-07
7.96266e-05 2.78251e-05 3.11501e-05
2.5316e-05 5.66965e-05 -2.06574e-05
8.0936e-06 5.38107e-06 -9.12278e-06
5.78298e-06 -1.81634e-07 1.36004e-05
1.7355e-05 -5.73619e-06 -3.15161e-06
-4.19249e-06 -9.33015e-06 1.99699e-06
6.2819e-06 3.43819e-07 5.38626e-05
6.80999e-05 2.25007e-05 -5.99603e-05
-6.87546e-05 2.48165e-05 -4.58536e-05
2.89044e-05 6.50767e-05 -6.55977e-05
3.09721e-05 1.49793e-06 1.13426e-05
-1.15901e-05 -1.36685e-05 1.75672e-08
2.80716e-05 2.38353e-05 1.96948e-05
7.70113e-05 1.57091e-05 -0.000177236
-8.27128e-06 1.70478e-05 8.31193e-06
3.3806e-05 2.82421e-05 -1.16551e-05
-5.80187e-07 5.71057e-07 -3.60389e-07
7.35425e-06 5.29513e-05 6.38253e-06
-6.99613e-05 0.000205882 6.93305e-05
-0.000113266 -3.8546e-05 0.000176925
-2.40748e-05 -5.17396e-05 -1.18891e-05
-1.71636e-07 3.63039e-07 -6.06936e-07
-7.03867e-05 1.61734e-05 3.37998e-05
-3.93734e-05 -2.53378e-05 -9.27314e-06
9.40661e-06 4.80941e-06 7.38702e-06
-1.25076e-06 -3.84482e-06 3.44541e-06
2.98772e-07 3.05716e-07 -8.35231e-06
-8.28416e-05 -8.17071e-06 4.90403e-05
-5.6467e-05 -4.42684e-05 9.74819e-05
-4.38575e-05 -7.55137e-05 -5.82153e-05
1.27382e-05 5.54546e-06 -2.77661e-06
1.23289e-05 1.58593e-06 -1.18392e-05
7.41749e-06 -3.25149e-06 -2.72512e-06
2.92732e-06 -3.19386e-06 -1.93304e-06
-1.12553e-06 -8.03982e-06 -7.20371e-06
-4.28453e-06 -2.18789e-05 6.69061e-05
1.56452e-05 -3.36917e-05 -1.14962e-05
-6.89908e-06 1.32544e-05 1.74778e-05
3.24976e-05 4.64684e-05 3.22938e-06
5.17065e-05 4.31451e-05 4.94086e-05
1.71182e-05 9.49207e-06 9.036e-06
2.58202e-07 -2.15772e-06 1.9782e-05
-1.06177e-05 1.51433e-06 2.3339e-07
3.17757e-06 -2.72181e-05 3.67545e-06
5.01547e-06 -3.43287e-06 8.2531e-06
2.36149e-06 3.16054e-05 1.06196e-05
-1.97911e-05 -2.01583e-05 2.39936e-05
1.25987e-05 4.21549e-06 7.57443e-07
4.66124e-06 -1.4416e-05 3.01115e-06
-1.98432e-05 5.98404e-05 -3.32168e-05
-6.83556e-05 -3.56683e-05 -2.79765e-05
4.30789e-05 -3.41878e-05 -0.000101405
-8.3583e-07 1.46502e-05 3.56241e-06
7.13519e-06 3.33525e-05 1.90833e-05
-1.83568e-05 -1.2244e-05 -1.93319e-05
-1.4931e-05 -6.17807e-05 9.41637e-05
-5.5509e-06 -1.89746e-06 -2.32905e-05
-1.77934e-06 -1.01291e-06 -3.66769e-06
2.82348e-06 -3.19507e-06 -1.15086e-05
-4.28642e-07 -1.63163e-05 7.96765e-06
4.52878e-05 -2.24149e-06 0.000148483
1.05046e-05 9.34335e-06 -4.55225e-05
-4.32862e-05 2.91657e-05 9.80669e-06
-2.04481e-05 -3.91216e-06 2.78402e-05
-2.92267e-05 3.14933e-05 -8.18744e-05
-2.32999e-06 8.4406e-06 -5.93995e-06
-2.36261e-06 3.22576e-06 -1.10477e-05
-3.42486e-05 8.07171e-06 -0.000109068
4.58424e-05 -8.8074e-05 -0.000306726
-5.54054e-06 4.58261e-06 -4.29936e-06
-3.29376e-06 4.66458e-06 -4.32071e-06
9.12017e-06 8.51212e-06 3.50964e-06
-6.56647e-06 5.36682e-06 -1.5188e-06
-1.69331e-05 -8.69575e-06 2.91686e-06
-8.9468e-05 -0.000100404 0.000156344
1.67517e-05 3.91969e-06 2.85029e-05
-9.96523e-07 1.17126e-06 2.48807e-05
-9.5251e-06 -3.24057e-06 -3.35062e-06
3.16561e-08 -2.18865e-07 3.39862e-07
1.61766e-05 -1.60927e-05 -1.47804e-05
-9.20268e-05 -6.85486e-05 8.59799e-05
-0.000166078 -0.000111777 -0.000193083
7.68447e-05 5.95023e-05 2.45889e-05
1.77554e-05 -2.25879e-05 -5.7317e-06
-2.48169e-05 -4.05357e-05 1.70241e-05
1.70494e-05 -1.99013e-05 -1.21373e-05
-0.0002338 8.74884e-05 0.00130751
7.91069e-06 -1.53085e-06 2.30055e-06
-1.71462e-08 -6.31023e-07 -1.80486e-07
4.91309e-05 -1.82574e-05 6.92756e-05
-9.23305e-06 -4.23852e-05 8.26017e-05
6.05973e-05 3.14899e-05 7.34623e-05
-2.05092e-06 -6.56029e-05 4.54034e-05
3.51356e-05 8.51391e-08 -1.28406e-05
7.93699e-05 3.37585e-05 -4.24099e-05
7.18726e-06 3.68898e-06 -6.35277e-06
1.39123e-05 1.85758e-07 -7.02634e-06
-1.57622e-05 -3.66456e-07 -1.53637e-05
-3.76595e-07 -2.20289e-06 3.69708e-06
-8.05752e-06 -2.41134e-05 -1.0402e-05
-4.76298e-06 2.34026e-05 1.48895e-05
4.24706e-05 -7.75859e-07 1.39547e-05
-0.000243119 -0.000207707 -0.000159291
1.6451e-06 6.31023e-06 8.39059e-06
-2.6568e-06 2.31707e-06 1.75038e-06
-2.05443e-05 -2.72289e-06 1.94828e-05
-1.86575e-05 -7.48563e-06 1.52553e-05
5.11545e-06 -7.91088e-06 7.45163e-06
-1.1522e-05 -3.90137e-05 2.42254e-05
5.63236e-06 -1.21442e-06 4.93403e-06
3.7786e-05 8.5899e-06 3.21756e-05
-6.50732e-06 -2.31886e-06 4.16363e-06
-3.47514e-06 2.18081e-06 3.09368e-06
-2.51429e-05 2.6801e-06 9.52543e-06
-6.80397e-06 -1.07066e-05 -1.68271e-05
1.1333e-05 1.84298e-05 7.25182e-06
5.19136e-05 -3.32682e-05 9.41385e-06
1.13315e-05 -3.13997e-06 1.34654e-05
-3.31721e-06 3.41698e-06 1.8222e-05
5.66305e-06 3.97307e-06 -5.28232e-06
9.53442e-06 -1.27062e-05 -1.92006e-05
1.65251e-06 7.76868e-06 -1.99939e-05
9.69669e-06 -4.08702e-05 -3.61928e-05
2.89966e-05 -1.63794e-05 -2.14101e-05
4.84019e-06 -1.32621e-05 -4.8874e-05
-5.01909e-07 -2.99311e-06 2.84595e-05
1.23475e-05 -3.70501e-06 -1.09398e-05
2.75533e-06 6.94286e-07 8.62872e-07
8.80455e-05 -2.04051e-05 -6.72941e-05
5.67315e-06 -4.47573e-07 5.48721e-06
-6.81841e-05 1.30681e-05 5.0642e-05
2.00769e-05 1.04033e-06 3.34457e-05
3.07992e-06 -5.89468e-05 3.87442e-05
3.41846e-05 1.10415e-05 5.05705e-05
-4.40223e-05 -2.02077e-05 3.60147e-05
1.27807e-05 2.55229e-06 1.18157e-05
5.11418e-05 5.52968e-05 -0.000134756
3.35934e-05 3.63895e-05 4.60877e-05
3.09796e-05 -1.23509e-05 -4.63276e-05
-1.92777e-05 1.23156e-05 -5.89475e-05
-4.4233e-06 -3.52386e-06 -3.68542e-06
-5.26557e-06 8.98685e-06 -9.70157e-06
-4.30992e-06 -8.33129e-06 -3.54835e-06
4.18099e-05 5.1614e-05 -3.77378e-05
8.88853e-05 4.54961e-05 8.56669e-05
-3.07579e-06 -6.6811e-06 6.3624e-06
-3.59477e-06 1.12205e-06 4.58991e-06
9.49565e-05 4.1399e-05 -1.13581e-05
6.75927e-06 -9.8823e-06 2.74373e-07
3.86973e-05 -2.75523e-05 -6.01504e-05
-5.73376e-06 5.20835e-05 -4.38814e-05
2.64802e-05 -7.45546e-05 2.11968e-05
-1.68677e-05 -1.48723e-05 -2.37878e-06
-1.83384e-06 -1.1598e-05 -1.11204e-05
-1.10356e-05 -2.61712e-06 3.39459e-06
1.59423e-05 -2.39763e-06 1.05479e-05
-3.63234e-06 -1.74516e-05 -9.10292e-06
1.0772e-05 7.17599e-06 -2.5795e-06
2.25394e-06 4.22162e-05 -1.05794e-05
3.54473e-05 -1.60652e-06 -7.76328e-05
-2.10323e-05 4.07089e-05 2.96157e-06
7.59587e-06 5.50946e-06 -4.66407e-06
1.08532e-05 1.23999e-06 3.99225e-06
5.67081e-05 3.87264e-06 -2.38259e-05
2.7786e-06 2.94214e-05 0.000121612
-2.23418e-05 1.53807e-05 1.57535e-05
5.2993e-07 -1.99122e-05 2.49575e-05
6.18045e-05 2.07887e-05 2.1599e-05
-2.52907e-05 -2.67791e-05 -1.61715e-05
-5.40131e-06 -2.0917e-05 2.32953e-05
5.36036e-06 7.81752e-07 -2.54096e-05
1.61802e-05 4.87771e-06 -3.63419e-07
-1.8641e-05 3.1546e-05 4.0877e-05
2.95444e-06 1.3579e-05 4.18412e-05
1.58296e-05 -4.39432e-05 2.90119e-07
-4.51561e-06 7.87764e-06 -3.14734e-05
-1.11057e-05 9.32964e-06 2.449e-07
-2.72148e-05 0.00032941 -0.00014973
-0.000320025 -0.000157427 -0.000148272
8.32643e-05 0.000120128 -0.000228882
-3.84495e-05 -4.28208e-05 -4.59847e-05
-1.25346e-06 3.99505e-06 -5.05029e-06
-3.35348e-06 7.66119e-06 8.17841e-06
8.79114e-06 -2.06205e-06 -2.00089e-05
1.04373e-07 2.10714e-05 -2.98228e-05
2.3598e-05 -5.72904e-05 -1.61061e-05
9.16625e-05 -1.35374e-05 4.2522e-05
-1.96312e-06 5.42582e-05 2.49883e-05
3.62329e-05 -5.03421e-05 1.67013e-05
1.01637e-06 6.66566e-06 3.57065e-06
-3.20889e-05 -1.96535e-06 -1.76403e-05