<?xml version="1.0"?>
<VTKFile type="UnstructuredGrid" version="0.1" byte_order="LittleEndian" compressor="vtkZLibDataCompressor">
 <UnstructuredGrid GhostLevel="0">
  <Piece NumberOfPoints="1407" NumberOfCells="1407">
   <PointData>
    <DataArray type="Float64" Name="Elongation" NumberOfComponents="3"/>
0.000198155 -0.000156703 3.63839e-05
2.66918e-05 1.11173e-05 -2.30926e-06
-2.71758e-05 1.23934e-05 -3.26942e-06
-2.18838e-06 1.00144e-05 6.37401e-06
-8.67921e-07 -8.40616e-05 9.92502e-05
5.15543e-06 6.24349e-05 8.05785e-05
-2.04301e-05 -1.58293e-05 2.78138e-05
6.20137e-05 4.41061e-05 2.88322e-06
6.16036e-05 -5.9393e-05 -5.31781e-05
-1.99358e-05 -2.15559e-05 -3.32073e-05
3.60185e-06 5.14495e-06 -7.32328e-06
9.35268e-05 -1.42827e-05 4.77688e-05
-2.13969e-06 7.55504e-07 1.48383e-06
-0.000148415 4.64411e-05 -0.000328761
-5.57203e-05 0.000115284 -0.000245743
7.72256e-05 -0.000219676 -0.000467228
-5.26933e-07 -1.42938e-05 1.8532e-05
0.000137329 9.58452e-06 -0.000157407
-4.45726e-05 2.35619e-05 3.80976e-05
-3.37788e-05 -2.87953e-05 -5.40938e-06
-1.88549e-05 2.1649e-05 1.2365e-05
1.293e-05 2.13453e-06 -1.94242e-05
-4.12376e-05 -1.33764e-05 3.97001e-05
-5.27323e-05 2.3895e-06 3.42001e-05
4.04916e-06 3.23007e-05 2.57811e-05
-1.57657e-05 2.23247e-05 1.41442e-05
-1.0233e-05 -1.58817e-05 1.69357e-05
-4.26082e-05 -5.35752e-05 -1.28896e-05
-1.99933e-05 2.83126e-05 4.68092e-05
-0.000215253 0.000292368 -0.000492482
-2.62483e-06 -1.34797e-06 -4.25847e-05
1.70148e-06 1.82999e-06 -3.86892e-06
-3.21635e-05 -7.36343e-07 3.52921e-05
-5.19797e-05 4.98193e-05 -0.000111417
-1.88954e-05 3.64971e-05 7.28067e-05
-7.75432e-05 5.82182e-05 -1.61385e-06
-3.34591e-05 -3.49117e-06 2.82932e-05
-3.73509e-05 6.3566e-06 -3.18413e-05
-8.43001e-05 1.04653e-05 5.85889e-05
-6.80872e-05 5.21907e-05 8.83114e-05
-1.10781e-05 -4.35406e-06 -1.18661e-05
-5.14975e-06 7.01314e-06 -2.88351e-06
-1.81001e-06 1.5782e-06 2.86319e-06
-2.97979e-05 -2.13169e-06 -2.70157e-05
-2.3578e-05 -7.17205e-05 9.07921e-05
0.000117918 -0.000154987 -0.000233871
-0.000302217 7.15703e-06 -0.00031431
-4.96633e-05 -1.17292e-05 6.04688e-05
-2.94116e-05 7.86057e-06 -4.23205e-05
-6.60232e-07 4.86743e-05 5.31269e-05
-4.53127e-05 2.45909e-05 1.07477e-05
-6.63041e-05 -1.69184e-05 1.96573e-05
-2.38935e-05 3.04329e-05 -1.39532e-05
4.44893e-05 7.69058e-06 -5.837e-05
3.37821e-05 8.09759e-05 -7.10588e-05
-4.07574e-05 6.50965e-06 -3.28076e-05
-4.13015e-07 2.74682e-06 -2.77955e-06
3.63336e-05 -1.74802e-05 5.12655e-05
4.02427e-05 -1.09077e-05 2.76204e-05
9.66059e-05 0.000106237 -0.000157483
0.000194734 0.000126932 0.000250616
3.21042e-06 1.24809e-05 -7.78932e-06
2.02276e-05 1.03208e-05 2.10289e-05
3.67415e-05 -4.83985e-05 1.50604e-05
-3.86813e-05 0.000116767 0.000167895
2.31808e-05 -7.18886e-07 2.44464e-05
7.46644e-05 5.48377e-05 6.34808e-05
3.51618e-06 6.02094e-05 4.48843e-05
5.38974e-05 2.91931e-05 -6.40148e-05
-8.58542e-06 -4.5465e-06 5.27788e-08
-1.26516e-05 -1.12307e-05 3.50674e-06
2.52701e-05 2.79719e-05 -4.88174e-05
-8.16167e-05 -2.27435e-06 5.94101e-05
-1.20074e-05 -6.87573e-06 -1.03717e-05
-0.00011194 -5.57715e-05 0.000125254
3.96287e-05 -4.34593e-05 6.41289e-05
3.37685e-05 1.82519e-05 4.07492e-05
6.09924e-07 5.94235e-07 -2.10919e-05
-3.48489e-05 2.96799e-05 9.48506e-06
3.46614e-05 -2.78313e-05 4.41668e-05
-2.29917e-06 -5.63904e-05 -4.04775e-05
-8.20867e-05 -3.32957e-05 9.60867e-05
6.98712e-05 3.531e-05 2.3457e-05
9.06608e-06 8.73636e-05 8.35319e-05
8.21367e-05 -9.35907e-05 -6.6825e-05
-0.000385826 0.000305567 -0.000207389
-0.000550618 0.000473886 -0.000744164
2.67244e-05 8.44274e-06 -1.89543e-05
-3.36787e-05 3.09089e-05 -2.8992e-05
-1.4962e-05 3.54509e-05 -0.000138715
-1.56795e-05 -0.000168512 -0.000872021
-1.24365e-05 3.24173e-05 -0.000187415
5.32223e-05 2.28645e-07 5.5844e-05
2.92777e-05 9.46149e-05 -7.17512e-05
-3.00115e-05 4.33463e-05 4.23502e-05
-2.39332e-07 4.69745e-05 3.59009e-05
2.44354e-05 1.35734e-05 -3.07883e-05
-9.40951e-05 4.90598e-05 0.000112619
-0.000189392 3.46044e-05 -0.000174219
-4.84066e-07 1.86521e-08 -7.01842e-06
-3.25351e-05 -1.70712e-05 4.02471e-05
4.66653e-06 8.07897e-05 8.0801e-05
-1.57859e-05 2.63143e-05 1.14892e-05
-9.04957e-05 -1.08813e-05 6.1057e-05
-3.75337e-05 3.01936e-05 5.1521e-05
0.000103687 0.00012988 0.000175463
3.58143e-05 -0.000333308 -0.000397388
-2.06019e-05 1.12401e-05 -2.44206e-05
8.04303e-05 -0.000336575 0.000121719
-2.09262e-06 6.01764e-06 4.64501e-06
-5.52155e-06 1.0039e-05 1.62352e-05
5.86791e-06 8.176e-06 -6.09404e-06
-7.62215e-05 8.90932e-05 -2.09824e-06
4.62877e-06 1.00276e-05 -7.3531e-06
-2.34916e-05 0.000118421 6.697e-05
0.000134635 -2.73119e-05 -0.000370118
-0.000382981 0.00019197 -0.00116755
-0.000410185 6.37816e-05 -0.000860053
-6.69943e-06 1.00074e-05 8.45842e-06
-2.07421e-05 6.2211e-05 -9.91921e-05
1.89886e-05 7.76199e-06 3.34767e-05
-2.54381e-06 -5.04861e-05 0.000291565
-0.000140341 -6.92168e-05 0.000519406
-7.5207e-05 -1.82812e-05 -0.000599137
-0.000179713 -8.62087e-05 0.000429637
2.67755e-05 4.01319e-05 -6.91339e-05
-2.25819e-05 5.08731e-05 7.50873e-05
-0.000111528 0.000167971 2.5137e-05
7.52204e-06 -1.38395e-05 0.000119399
-5.10994e-06 -1.58178e-05 2.07639e-05
7.37045e-06 2.08084e-07 7.19507e-06
8.81688e-05 -0.000329561 -0.000324216
1.08131e-06 3.79207e-06 -1.51981e-06
-3.79789e-05 -6.83814e-05 -8.6947e-05
-2.70933e-05 0.000306 -0.000350633
5.29232e-06 -2.02604e-05 -2.27718e-05
-5.90022e-05 -0.000255765 0.000148749
-2.4663e-06 0.000109849 6.4579e-05
-3.58149e-06 1.44969e-05 -0.00017446
-0.000545367 0.000212598 -0.000859962
8.23806e-05 -6.22773e-05 -0.000174065
-1.19598e-05 4.2099e-05 -9.29487e-05
-7.17365e-05 -0.000163112 -0.000250244
6.53725e-05 0.000107872 -0.000139815
3.26156e-05 1.17723e-05 1.98265e-05
-3.94748e-05 1.61658e-05 -0.00018052
-6.81008e-06 -4.09166e-06 -6.54146e-05
3.66643e-05 6.18835e-05 -4.53283e-05
1.09891e-05 -1.86866e-05 0.0001121
-3.38059e-05 2.73573e-06 6.96724e-05
-0.000239103 -0.00042865 -0.00100829
-0.000311469 0.000145503 -0.000647723
-6.98283e-05 -1.81851e-05 -9.33638e-05
-5.53286e-06 3.59602e-05 1.82277e-05
4.78443e-05 -2.7332e-05 8.4382e-06
5.32677e-07 -1.08196e-05 5.02433e-05
-1.81888e-05 -3.17905e-05 -2.16817e-05
7.69168e-05 -2.60036e-05 7.25109e-06
1.42333e-06 7.82148e-06 -1.2016e-05
-1.70002e-05 -1.9457e-05 -3.39905e-05
3.05994e-05 1.17537e-05 7.49593e-06
-1.33172e-05 3.67169e-05 -3.56269e-05
0.000118998 -3.4823e-05 -0.00022833
-8.07844e-05 -4.46168e-05 -7.13241e-06
1.30481e-05 -7.99197e-06 1.26636e-05
8.81464e-05 -3.1929e-05 -0.000237566
1.52234e-05 5.3855e-05 2.12768e-05
2.04242e-06 -1.224e-05 1.10739e-05
-2.34099e-05 -3.28074e-05 1.81879e-05
-2.37978e-05 -2.49805e-06 3.28456e-05
-6.84743e-07 1.24391e-05 -7.69841e-06
1.46803e-05 -1.82507e-06 -1.05504e-05
1.5022e-05 -6.20356e-05 6.86773e-05
0.000103364 -2.29783e-05 1.30009e-05
-7.91545e-05 -5.94528e-05 0.000125054
-4.88863e-05 -1.74558e-05 -4.49456e-05
1.16465e-05 2.8878e-05 4.87262e-06
3.39372e-05 -7.90385e-06 -2.18539e-05
1.5987e-05 -2.01007e-05 8.68049e-07
3.78689e-05 -2.93283e-05 -2.84752e-05
-1.1515e-05 -2.99284e-06 -1.74498e-05
1.2051e-05 5.5307e-06 2.90326e-05
-2.32245e-05 1.9661e-05 -3.1086e-05
9.50916e-05 1.43143e-05 1.37273e-05
-3.44584e-05 -9.41385e-05 0.000169829
-3.08386e-05 2.23564e-06 3.39036e-05
1.84666e-05 -5.60261e-05 9.93105e-06
-8.11364e-06 -3.10349e-05 1.98949e-05
-0.000477391 0.000370987 -0.000221062
-2.26661e-05 -8.22855e-05 4.92592e-05
4.30287e-06 1.33688e-05 4.03075e-05
1.45381e-05 8.55449e-06 -2.36341e-05
-1.63704e-05 3.89385e-05 4.88601e-05
-2.85649e-05 9.92013e-06 -6.204e-05
-2.08468e-05 -2.84628e-05 -1.50335e-05
-1.60534e-05 1.34695e-05 -2.84339e-05
-2.00171e-05 2.65066e-06 -2.09602e-05
-6.91565e-06 1.11246e-05 -2.35457e-06
-8.48647e-06 -1.70778e-05 -5.71675e-06
3.07937e-05 -2.79712e-05 5.33668e-05
-9.03288e-06 1.06686e-05 -6.50725e-07
-3.15058e-05 4.16778e-05 -1.0617e-05
0.000116982 -5.3784e-05 5.00275e-05
1.3017e-05 -3.27571e-05 -3.95282e-05
1.89022e-06 9.51128e-06 -2.61911e-05
0.000195713 -0.000131086 8.60134e-05
-1.32899e-05 -2.7954e-06 8.94794e-06
1.25606e-05 5.07419e-05 0.000229695
7.69593e-05 8.35632e-05 4.04781e-05
-3.22002e-07 -1.34851e-05 2.0629e-06
4.45668e-05 -3.05695e-05 6.81374e-05
-7.14225e-08 -9.75574e-08 9.98317e-06
4.26535e-05 -5.60203e-05 4.01467e-05
7.73655e-06 4.30327e-06 -1.36304e-05
-6.41462e-05 -2.09794e-05 2.98816e-05
-1.40018e-05 -1.98779e-05 -3.70289e-05
-2.88905e-05 5.28378e-06 2.60247e-05
2.05433e-05 3.46974e-05 -8.47777e-06
-3.65028e-05 1.37449e-05 2.23271e-05
-3.03042e-05 -3.93384e-05 8.08554e-06
-2.11787e-06 2.58059e-06 1.13002e-07
-2.48327e-05 -2.77292e-05 2.09798e-05
-3.78124e-06 -4.18166e-05 9.95897e-05
-2.4161e-05 0.000103318 5.19073e-05
5.51367e-06 -8.45026e-07 -3.61817e-06
-6.52105e-06 -7.07199e-06 -1.01381e-05
2.70689e-05 5.92281e-05 1.34303e-05
-4.03752e-05 4.08691e-05 0.000311317
-3.18512e-05 4.69437e-05 -4.60449e-05
-2.67836e-05 5.0351e-05 -1.79029e-05
7.54189e-06 -2.34961e-05 1.74679e-05
-6.73681e-05 -9.87505e-05 -7.60206e-05
1.48651e-05 -2.04375e-05 -7.5951e-06
1.15293e-06 -4.59133e-06 1.23081e-05
5.36328e-06 5.82758e-06 4.85526e-05
-6.04265e-05 0.000128086 7.84368e-05
-8.70746e-06 1.98799e-05 4.75436e-06
-3.57764e-05 3.45458e-06 2.31051e-05
1.47493e-06 1.08972e-05 4.08438e-06
1.33556e-05 2.83935e-05 0.000190424
1.60633e-05 2.34361e-05 3.02419e-05
4.48766e-05 0.000120257 4.53511e-05
1.91047e-05 2.49353e-05 -3.80928e-05
-2.34837e-05 1.44677e-05 3.23268e-05
-1.20197e-07 -4.27233e-06 4.02758e-06
-5.94281e-06 8.46496e-06 2.33544e-06
-6.14904e-05 9.33735e-05 -0.000117127
0.000118278 -1.97831e-05 2.40546e-05
-6.64601e-05 -1.18535e-05 2.49097e-05
1.21756e-07 4.07292e-05 -0.000174477
-1.17565e-05 4.30378e-05 6.57759e-05
3.92777e-05 3.13084e-05 2.02068e-05
0.000132822 -3.84821e-05 -0.000107642
-6.98846e-05 -0.000688101 -0.000744164
0.00092989 0.000271937 -0.00114498
-0.000216261 -5.30819e-05 7.67508e-05
-4.16407e-05 -5.43637e-06 9.01172e-05
7.63102e-06 8.10503e-05 -0.000128728
5.37737e-06 -6.66099e-05 -5.50753e-05
0.000173777 -4.56848e-05 0.000692303
5.18192e-06 -1.98533e-05 1.31567e-05
5.38451e-06 1.5737e-05 1.14046e-05
-2.28919e-05 -3.36308e-05 1.89526e-05
2.58918e-05 -1.05927e-05 -2.48836e-05
2.83887e-05 -2.20714e-05 -3.16519e-07
-0.000454936 -0.000255619 0.000276095
-2.24982e-06 -2.27313e-06 -1.43826e-05
9.35513e-05 0.000522033 0.000627771
-3.31745e-05 2.14096e-05 3.55051e-05
9.37997e-06 1.24348e-05 2.02226e-06
-0.000297776 0.000540727 0.000461339
-1.59164e-05 -0.00012746 3.74788e-05
-4.66996e-05 -2.98509e-05 2.73465e-05
7.95491e-05 1.82777e-05 -4.14231e-05
-1.47225e-05 -4.51403e-05 -2.78913e-05
-0.000306865 -8.46231e-05 5.23596e-05
1.6417e-05 6.10692e-06 0.000522504
6.06469e-05 1.10395e-05 0.00029299
-0.000731137 0.000406568 -0.000984029
6.2278e-05 -2.15025e-05 -6.03912e-06
3.28843e-06 6.29256e-06 3.71722e-06
1.90886e-05 -4.34942e-05 -2.02116e-05
0.000100557 2.2546e-05 -1.1674e-06
-8.66452e-06 -4.19547e-06 1.37781e-05
0.000133577 -3.58469e-05 -7.20561e-05
5.64911e-05 -0.000236608 -0.000479419
-0.000184368 0.000196546 -3.47791e-05
-0.000149632 0.000456895 -0.000237188
1.11595e-06 -1.18905e-06 3.50745e-07
0.000342729 -0.000106084 -0.000777985
-7.89842e-05 0.000206591 0.000123498
2.14699e-05 2.24402e-05 -6.78718e-06
5.3716e-06 -3.02405e-05 1.73488e-06
4.4183e-05 7.2997e-06 8.32055e-05
-0.000270334 4.68728e-06 0.000227372
-0.000120132 -0.000124698 0.000212473
1.8749e-05 1.06165e-05 1.40922e-05
-1.64286e-05 8.31687e-06 3.96067e-05
-0.000178998 8.6165e-06 -0.000552822
-0.000165818 -8.0696e-05 0.000175851
4.19182e-05 3.67682e-05 3.03829e-05
-3.91192e-05 -2.97154e-05 2.53444e-05
-7.1868e-05 6.97997e-06 4.85324e-05
1.3908e-05 2.22614e-05 4.70881e-06
-4.5056e-05 7.9484e-05 1.92363e-05
-0.00023531 -0.000240609 0.00036858
1.97422e-05 2.07568e-05 2.52799e-05
3.17332e-05 -1.79949e-05 2.76005e-05
3.84514e-05 -0.000396696 0.000120838
-4.90197e-05 0.00019525 0.000275529
1.73694e-05 -1.84378e-05 2.6069e-06
3.95638e-06 4.18751e-06 7.07225e-06
-5.75264e-06 -4.04542e-05 2.56217e-05
2.27954e-07 -1.72114e-05 2.19085e-05
2.10567e-05 -7.13538e-05 -0.000175674
6.74952e-05 7.84484e-05 -0.000114942
7.03503e-05 -3.40559e-05 5.1021e-05
1.683e-05 1.59975e-05 -2.3944e-05
-6.46474e-05 0.000106522 0.000165782
7.81298e-05 1.25657e-05 9.68913e-05
-0.000102774 1.54867e-05 -1.53853e-05
1.71071e-06 -5.35406e-06 -2.15237e-06
3.54238e-05 3.79566e-06 -2.87165e-05
7.38625e-05 -3.47184e-05 -5.55447e-05
-5.42307e-06 -1.62751e-05 7.43454e-06
2.03833e-05 -5.24429e-05 5.75611e-06
4.80064e-07 1.01338e-06 -7.36104e-07
-0.000144932 2.84205e-05 -0.000326786
-9.668e-06 -7.08634e-06 5.80638e-06
-0.000412714 -0.000528918 0.00081985
6.78197e-05 0.000144261 -3.05963e-05
8.91854e-05 1.63928e-05 2.38719e-05
-3.45886e-05 1.30181e-05 -3.96613e-05
-1.9413e-05 -8.72015e-06 1.83216e-05
-1.05123e-05 2.02325e-05 1.09159e-05
2.85505e-05 -1.70616e-05 -3.59606e-05
4.00699e-06 2.09963e-05 -1.45511e-05
3.12509e-05 -1.27168e-05 -6.2502e-05
5.76204e-06 2.4242e-05 -5.07188e-05
1.62543e-05 -6.01109e-05 -2.91541e-05
9.29119e-06 3.45141e-05 -3.37015e-05
-1.96381e-05 2.23282e-05 -5.41337e-06
-6.67473e-05 -1.63382e-05 0.000239033
-1.81307e-06 -2.08832e-05 1.3059e-05
7.89868e-08 -6.40704e-05 4.02786e-06
1.5898e-05 -1.61792e-05 8.96341e-06
0.000128172 5.65375e-06 0.000216025
-3.87155e-05 7.96927e-05 5.65286e-05
-1.68534e-05 1.68552e-05 -8.83471e-06
-4.05489e-05 -9.0162e-06 3.11693e-05
8.35436e-05 -8.41515e-07 1.44848e-05
2.28409e-06 -8.54671e-06 2.67924e-05
-1.40246e-05 -3.12818e-05 -2.17015e-06
7.45531e-05 1.72765e-05 2.98747e-05
2.4335e-05 -6.30699e-06 1.02331e-05
-1.16586e-05 5.22883e-05 1.39442e-05
1.08898e-05 8.22591e-06 1.66141e-06
-2.67766e-05 1.16448e-05 -1.98092e-05
0.000311556 -0.000290789 0.000110676
5.2028e-05 7.86146e-05 -6.98899e-05
2.92079e-05 3.41315e-05 2.12718e-05
1.11582e-05 -6.53102e-07 6.02406e-05
-1.20944e-05 2.86687e-05 -1.49574e-05
-1.70955e-06 -1.77901e-06 1.06656e-07
2.49214e-05 -3.61089e-06 1.28773e-05
2.01397e-05 -3.37352e-05 -5.75466e-05
-3.12631e-05 0.000102363 3.03277e-05
-1.44496e-05 8.54399e-05 5.85277e-05
2.13122e-05 -5.17557e-05 -8.46148e-06
5.30977e-05 3.9981e-05 8.37683e-05
-1.12447e-05 -1.04815e-05 4.52057e-06
-1.09282e-05 -2.32213e-06 -2.28387e-05
7.6665e-05 -4.82606e-05 3.00802e-05
-0.000333924 -0.00020926 0.000632326
9.788e-06 1.05757e-05 1.89463e-05
-8.73077e-05 -9.19491e-05 7.46368e-05
8.97462e-07 -2.03744e-06 1.25511e-06
-8.80453e-05 -4.49994e-05 -0.00010226
1.61163e-06 -4.34376e-06 2.38403e-06
2.01433e-05 2.41226e-05 1.00063e-05
2.06884e-05 -2.66792e-06 -2.35104e-05
-6.89642e-05 7.86403e-05 0.000621113
-0.00119165 0.00160984 -0.00345158
9.3643e-07 1.80868e-07 2.63785e-06
-0.000320802 2.06899e-05 -0.000144285
2.6034e-06 1.46292e-05 -7.57122e-06
5.81947e-06 -5.63169e-05 -3.01366e-05
-1.33109e-06 -4.08942e-06 -2.3479e-06
-5.77675e-05 -1.34568e-05 5.41001e-05
-0.000230464 -3.92878e-05 2.02829e-05
-3.85193e-05 -2.77709e-06 8.66529e-06
-0.0015126 0.000330819 9.36232e-06
-0.00116632 -9.56308e-05 -0.00267365
-0.000247335 -0.000148847 -0.000385958
5.48513e-05 -8.39155e-05 7.09459e-05
-0.000281219 2.64582e-05 0.000212216
-2.73121e-05 -8.40616e-05 1.88609e-05
-0.000212892 0.000301149 0.000573473
-0.000159074 -0.000388034 -0.000137885
-0.00031871 -7.96207e-05 -0.000300994
4.1593e-05 -6.15082e-05 4.19922e-05
0.000264171 2.16418e-05 -0.00150413
3.21925e-07 -1.40659e-05 -1.05066e-05
2.60275e-05 7.89883e-06 -2.27813e-05
-3.76545e-06 -1.12307e-06 -1.98118e-06
8.58437e-06 1.52137e-05 1.87406e-05
-0.000319571 0.000106539 0.000320158
-5.74448e-05 4.23221e-05 7.30354e-07
-7.32058e-05 -3.41106e-06 -2.96914e-05
-1.06327e-05 2.77412e-05 3.15232e-05
-4.97418e-06 3.23273e-05 -4.38899e-05
1.04122e-05 2.45198e-05 2.61024e-06
-2.13508e-05 -1.66239e-05 3.38869e-05
3.85559e-06 -6.74261e-06 -2.35464e-06
2.10694e-05 2.67705e-05 4.37919e-05
1.04866e-05 -1.5118e-05 3.14858e-07
-9.24074e-07 8.10844e-06 4.87464e-06
7.64016e-05 0.000214104 -0.000277232
-0.00013748 -2.20125e-05 -0.000427892
-2.18094e-05 -2.76129e-05 2.22329e-05
1.44855e-05 2.95266e-05 1.52586e-05
8.00446e-06 -9.47165e-06 -5.34963e-06
-2.96849e-06 3.73166e-05 8.74773e-06
-8.34854e-05 7.97841e-05 -2.31988e-05
-9.75137e-05 1.94453e-05 -1.93234e-05
-1.30817e-05 8.38887e-06 7.28993e-06
8.23714e-07 -7.26166e-06 -4.54842e-06
-7.88422e-06 -1.39173e-05 9.97555e-06
-2.70131e-05 -2.23985e-05 3.57429e-05
4.17715e-06 -2.45803e-05 -2.80823e-05
-4.61575e-06 9.35412e-06 -2.91288e-06
-7.73133e-05 -1.14624e-07 0.000110192
-2.73853e-05 -4.79675e-06 -4.3278e-05
4.77587e-05 -4.77904e-05 -4.49841e-05
-4.76043e-06 -1.81908e-05 3.16712e-05
-3.40221e-05 -1.64223e-05 4.14554e-05
0.000220804 -0.000707255 -2.99662e-05
-3.87549e-05 -1.08388e-05 8.15363e-06
0.000452999 7.24435e-05 -0.000414284
0.000180875 4.01524e-05 2.20094e-05
2.33883e-05 -5.73687e-05 8.51457e-05
-0.000182821 -0.000122214 -0.000208071
7.20466e-06 -1.80458e-06 -4.74403e-06
8.90211e-06 1.10203e-06 -3.18362e-05
-5.12437e-08 5.51164e-06 -9.03454e-06
6.92693e-05 -6.07846e-05 -6.72164e-05
-0.000106677 6.5408e-06 -0.00011483
-1.16837e-06 -3.23612e-06 1.43836e-05
-1.77358e-05 -7.95759e-06 -4.18768e-05
-1.06047e-05 2.32367e-06 7.14748e-06
-2.01658e-06 4.27283e-06 -1.19107e-06
0.000111337 -3.18831e-05 4.53967e-05
7.69074e-05 -4.54175e-05 7.01029e-05
2.73871e-05 -0.000135032 5.16548e-05
-3.27674e-05 1.9289e-06 1.86098e-05
2.61216e-05 2.60273e-05 3.45978e-05
-1.77541e-06 5.00214e-05 -9.02945e-06
-3.50292e-06 2.31804e-05 3.26909e-06
8.25368e-05 -9.00837e-08 -3.89587e-05
2.16563e-05 -2.3604e-05 -1.76827e-05
3.90609e-05 -3.41328e-05 0.000139582
-1.5231e-05 -0.000164933 -0.000359396
-8.93013e-06 1.67084e-05 2.87335e-05
-8.37216e-05 1.08586e-05 -0.000133394
4.65568e-06 6.8174e-06 2.84475e-06
-2.93812e-07 -5.83495e-07 1.62788e-08
1.07472e-05 1.71125e-05 -1.5412e-05
-1.26347e-06 -3.73838e-05 6.17781e-06
-3.275e-05 -9.5764e-06 -1.99716e-05
-1.64475e-05 -2.14424e-05 2.80148e-05
4.05052e-06 4.09141e-06 9.02882e-06
-1.06431e-05 1.63163e-05 3.06806e-06
-2.53006e-05 2.3086e-05 8.4332e-06
2.77878e-05 3.38331e-05 -3.6741e-05
-6.0855e-06 -5.50309e-05 -3.66274e-05
-7.25356e-06 -3.11123e-06 -2.57922e-07
1.83667e-05 -1.51225e-05 -2.15313e-06
0.000113933 -0.000193985 0.000186156
-6.4165e-05 0.00017938 -4.4174e-05
6.73179e-06 1.06841e-05 -6.7602e-05
-2.81126e-06 -7.53272e-06 -1.17452e-05
0.00019962 3.99346e-05 0.000302612
-6.42233e-05 -5.1299e-05 7.70567e-06
-2.46715e-07 -2.84614e-05 -1.91725e-05
-7.65973e-06 2.94795e-05 -1.07169e-05
0.000962673 -0.000359087 -0.000463164
-1.12175e-05 2.21259e-05 -4.44386e-05
2.36623e-05 -0.000827254 -0.000112497
-0.000153627 -0.000110748 -0.000150524
-4.71216e-05 3.49854e-05 0.000130483
-0.000112985 -2.66058e-06 -1.32758e-06
-1.27945e-05 -5.61952e-05 -2.86454e-05
0.000221181 -3.50198e-05 -5.53163e-05
1.24462e-05 1.23003e-05 1.24796e-05
1.52589e-06 6.00427e-06 -1.7279e-07
0.000188554 9.60329e-05 -0.000412143
-1.94493e-05 1.33449e-05 -0.00010977
-0.000186252 -0.00020301 6.97598e-06
-0.000397146 0.000384394 0.000759285
5.39307e-05 -0.000159273 -0.000323739
-2.2001e-05 5.08958e-05 1.1864e-05
-1.1597e-05 1.30501e-05 -3.41597e-06
-6.73161e-06 -3.348e-05 1.91749e-05
-2.44892e-05 -7.31721e-07 2.15824e-05
-0.000529533 0.000393309 0.000533938
-0.000342656 -0.000246944 -0.00101779
8.60668e-06 -2.30529e-06 -2.40451e-05
1.72423e-05 -1.85096e-05 1.6207e-05
0.000269891 -0.000129868 4.21429e-05
-2.12499e-06 3.26233e-06 1.65264e-06
-2.98276e-05 -1.61556e-05 2.99466e-05
1.09846e-05 1.90212e-05 -1.88133e-06
1.52255e-07 1.27025e-06 -5.49962e-08
3.5097e-05 2.01067e-05 2.79445e-05
-5.15465e-06 4.21224e-06 -2.74827e-07
7.13544e-06 -1.33452e-07 -1.80184e-06
3.85309e-05 -0.000616473 0.00017553
-9.20411e-05 0.00021369 0.000136927
-0.000169221 -1.20021e-06 -0.000294647
2.60871e-05 0.000206468 0.000509458
-2.82429e-05 1.24868e-05 1.67207e-05
2.60266e-05 1.90934e-05 1.68337e-05
2.41263e-05 -6.49305e-05 -4.84288e-05
-8.06868e-05 8.8249e-05 0.000140048
-0.000746145 0.000213263 -0.000148985
-5.23257e-05 0.000103402 7.26972e-06
1.14095e-05 -2.05335e-05 -1.46351e-05
0.000178219 6.25721e-05 3.93049e-05
0.000267021 0.000162294 -0.00102719
-1.11336e-05 6.81542e-06 -2.51077e-06
-0.000275487 0.000555429 -0.00111729
-2.82116e-06 -3.13523e-05 -1.44263e-05
-1.00893e-06 -2.15024e-06 -8.43227e-08
9.3064e-06 -2.79586e-07 -2.52259e-06
-1.57174e-07 2.18194e-05 6.40385e-07
-2.15838e-05 -6.49723e-06 -4.03675e-05
-5.3041e-05 -2.91733e-05 -2.30533e-05
-2.97483e-05 -1.14004e-05 3.59428e-06
7.86502e-05 5.21475e-05 -6.45067e-05
1.83478e-05 -4.87125e-05 -1.46062e-05
2.97265e-06 2.01395e-05 -1.78147e-05
-2.2149e-05 -1.06001e-06 -2.73202e-05
-2.63334e-05 0.000213616 -6.17738e-05
-8.71481e-05 -0.000160168 7.00653e-05
0.000112755 0.000229778 -0.000100064
5.89352e-06 6.87048e-06 2.19845e-05
0.000149836 -6.73151e-05 0.000128952
-2.98664e-05 1.55992e-05 -1.92847e-05
2.98412e-06 -2.47698e-05 -2.77387e-05
-0.000132897 -9.91339e-05 0.000152206
-1.84788e-05 -2.0827e-05 -1.39407e-05
-1.67512e-05 1.27665e-05 -3.4774e-05
2.19381e-05 -2.08536e-05 3.56941e-06
2.92048e-05 -2.24966e-06 -0.000182596
4.64805e-05 3.95842e-05 1.42488e-05
-2.28216e-05 -1.20361e-07 -9.70585e-06
9.52525e-06 1.91105e-05 -1.48141e-05
-0.000101227 -3.32844e-05 -0.000181569
-3.49137e-07 2.05035e-06 1.73683e-06
-5.39348e-06 -4.41021e-05 -6.43268e-05
-1.09855e-05 -4.99933e-06 2.52658e-06
8.15996e-05 -4.05579e-05 -0.00016205
1.68138e-05 1.32252e-05 2.19264e-05
0.000356531 -0.000160027 -0.000251606
3.91504e-05 -9.77305e-06 -8.49743e-06
5.85539e-07 -9.45535e-08 -8.51172e-07
-1.17064e-07 -9.31981e-08 -2.20881e-07
-2.26906e-06 -2.46028e-05 2.27204e-05
1.27124e-05 -1.85061e-05 -2.50538e-05
-7.5844e-06 -2.23443e-07 2.62912e-06
-1.89647e-05 -1.41318e-05 -1.75547e-05
1.04244e-05 6.74818e-05 -3.64065e-05
-0.000113627 -3.69238e-05 -4.10754e-05
-3.93414e-06 1.15241e-05 -7.07481e-06
-7.06702e-05 2.49447e-06 6.16776e-05
8.72682e-06 1.61318e-06 -1.31158e-06
1.42627e-05 -2.36824e-05 2.49912e-05
-0.000178592 -1.94295e-05 0.000173104
-1.27383e-05 -7.45833e-06 -1.45216e-05
3.24994e-05 1.70462e-05 -4.02773e-05
3.57547e-06 -0.000372756 0.000193086
2.72876e-05 4.87285e-05 6.33742e-05
7.3005e-07 5.25485e-06 -6.71212e-06
-2.42148e-05 -1.34529e-05 1.87392e-05
0.00011968 7.65652e-05 7.37143e-05
4.52078e-05 2.57492e-05 -3.39336e-06
7.00188e-05 -2.6133e-05 4.64159e-05
1.5574e-05 -2.21473e-05 1.35276e-05
-3.22117e-05 5.50236e-05 1.42069e-05
-1.7404e-05 -1.8628e-06 -5.406e-06
-7.03315e-06 -1.12665e-05 -2.83919e-06
4.9812e-06 7.45057e-06 3.29791e-06
-0.000107582 4.6928e-05 5.28945e-05
2.3555e-05 -1.48185e-05 -2.20534e-05
4.83464e-05 -9.87069e-06 1.5393e-05
-2.14249e-05 7.84229e-05 -2.12109e-05
-9.78726e-06 9.85328e-07 1.35939e-05
-1.05193e-06 1.05499e-06 8.1629e-07
-1.55786e-05 1.99583e-05 4.14852e-06
8.5594e-05 8.56911e-05 -0.0010329
-3.53991e-05 2.22905e-05 1.57464e-05
-0.000255938 0.000293433 0.00048251
-4.22833e-06 -2.98705e-05 4.58542e-05
2.10446e-05 -1.2668e-06 1.06834e-05
4.73241e-05 -2.98684e-05 3.46879e-05
-1.1451e-05 3.06929e-05 4.81985e-05
-3.44743e-05 -1.94995e-05 -6.75748e-06
8.95275e-06 -4.71082e-06 9.80218e-07
1.75333e-05 -1.06637e-05 5.07491e-06
2.08291e-05 6.22504e-06 1.39177e-05
-4.09405e-05 -2.77145e-05 -1.04658e-05
-6.06862e-05 -9.03476e-05 0.000101839
0.00022373 0.000141587 -0.000294833
0.000310061 -0.000418792 -3.46605e-06
-3.17126e-05 0.00015361 -0.000346615
4.9748e-06 3.57974e-05 1.73516e-05
5.91835e-05 9.47308e-06 -5.33154e-05
3.7219e-05 0.000246712 -0.00016471
-2.18361e-05 0.00027062 -0.00033511
-2.45032e-05 -1.73886e-06 -1.7355e-05
-8.54661e-06 -3.46116e-05 -1.72761e-05
-3.87797e-05 -2.5517e-05 -7.15736e-05
-4.74298e-05 7.87141e-06 -8.17272e-05
1.12557e-05 -1.15038e-05 8.02531e-05
7.84953e-05 -6.62683e-05 5.75937e-05
-1.42796e-05 1.73623e-05 -2.75665e-07
2.79488e-05 -8.37755e-06 7.40487e-05
-0.000115695 -0.000106881 0.000423507
2.69081e-05 4.67117e-05 0.000203827
-0.00100105 -0.00037051 0.000124368
7.66587e-06 9.36637e-06 -8.9851e-06
0.000305492 -0.000267806 -0.000295663
-4.37327e-05 1.73257e-05 -0.000101005
1.2707e-06 -7.24007e-06 7.59735e-06
1.38522e-07 3.85667e-06 -5.36167e-07
1.99979e-06 -1.07873e-06 -2.05318e-06
-0.00101485 0.00182974 0.000271587
-0.000105916 -5.80056e-05 0.000148225
-0.000145195 -5.56117e-05 0.000690811
-0.00115336 -0.000471213 -0.0018213
2.69082e-05 3.3118e-05 2.40603e-05
-6.12249e-06 3.85576e-05 0.000241127
1.34135e-05 2.88667e-05 -1.30001e-05
-1.96023e-06 1.62107e-05 7.14479e-06
1.42093e-05 -2.75444e-08 5.29726e-06
5.09395e-05 -0.000115463 2.01529e-05
-2.88318e-05 -1.90542e-05 -8.81172e-06
-3.50196e-05 0.000146258 -4.63731e-05
-8.18901e-06 -7.65647e-06 -1.4027e-05
0.000776204 -0.000645413 0.00182912
-5.51462e-06 5.09032e-07 3.05855e-06
-1.78224e-05 3.13786e-05 -1.74868e-05
2.81547e-06 1.23653e-05 -2.79568e-05
8.66661e-05 0.000440454 0.00132057
8.19782e-06 -4.87701e-05 4.36527e-05
2.20728e-05 -1.14821e-05 -3.74868e-05
-1.40145e-05 -6.13182e-06 -3.79855e-06
-4.05196e-06 -1.08114e-06 -5.53333e-06
1.1142e-05 1.51115e-05 -1.92609e-05
-8.78846e-06 1.62791e-05 4.68928e-06
0.000116318 -0.000581016 -0.000307916
-1.86361e-05 -1.51782e-05 1.62237e-05
-0.00025147 -0.000158781 -0.00010089
1.09741e-05 1.57811e-05 1.0907e-05
1.14784e-05 1.53215e-05 4.8236e-06
6.31294e-05 -1.68009e-05 -9.94646e-06
-9.3825e-05 4.14978e-05 -8.33223e-05
-0.000342046 -0.000311553 -0.000366987
6.09482e-05 3.03945e-05 -5.2565e-05
4.4967e-05 -9.36299e-05 -0.000165189
-2.50609e-06 -3.88714e-05 1.87099e-05
0.000160316 -0.000102098 -9.05426e-05
-3.47141e-05 -0.000115914 0.000174378
-1.11544e-05 -2.66062e-06 -3.77165e-06
-1.90239e-05 -4.94683e-05 5.20842e-05
2.6414e-05 7.17409e-06 2.03424e-05
-5.19659e-05 -3.12381e-05 4.92417e-05
1.18851e-05 -3.55457e-05 4.0093e-05
-6.50392e-06 -2.03742e-06 1.16755e-05
2.19009e-05 1.23196e-05 2.30662e-05
0.000467165 -0.000308807 -0.000726663
2.15846e-05 3.53855e-06 4.07443e-05
1.32412e-06 1.56266e-05 9.27317e-06
-9.17638e-06 -7.21351e-06 6.96427e-06
-9.47543e-05 -0.000131691 -0.000113826
5.40441e-05 5.66957e-05 -8.17068e-05
-9.57896e-05 6.77434e-06 6.80955e-05
-2.46549e-05 -2.43765e-05 3.26224e-05
-2.05025e-05 5.64426e-07 7.45691e-06
-6.69213e-05 -5.2632e-05 -8.74281e-05
6.50751e-06 2.72063e-05 3.38879e-05
3.21181e-06 -7.40999e-06 1.30774e-06
-6.93422e-06 -4.21231e-06 -2.02145e-05
-9.11977e-05 -7.74781e-06 1.25522e-05
-2.35421e-05 6.44735e-05 3.00053e-05
-0.000384414 7.46343e-05 0.000365333
-6.51854e-06 1.05832e-05 1.01826e-05
-0.000180753 -0.000106306 0.000604316
-5.99831e-06 -5.09516e-05 -2.00051e-05
0.000107859 -0.000202423 0.000132377
-5.91871e-05 -6.30141e-05 6.48647e-05
2.39749e-05 3.42406e-05 0.000660908
-0.000114401 4.82652e-05 5.01393e-05
-9.17607e-05 1.20216e-05 9.11184e-05
-2.09165e-05 0.000100626 -7.39525e-05
-3.74086e-05 -1.0403e-05 0.000250616
-7.35237e-07 6.08903e-06 7.13282e-07
-2.07858e-05 1.19365e-05 -0.000267594
6.89041e-06 3.40628e-07 3.45302e-07
-2.93365e-06 -9.33333e-07 -3.86425e-06
5.89296e-06 5.34071e-06 -1.31258e-06
1.06161e-05 -3.45987e-07 -6.97596e-06
-0.000117501 -3.58005e-05 -1.10062e-05
0.000233474 -5.15381e-05 -7.94899e-05
-2.64175e-06 -5.03671e-07 -5.03784e-05
5.65444e-05 0.000108538 7.58642e-05
-3.1821e-05 -4.08101e-05 1.70179e-05
2.26718e-05 -8.37937e-06 -1.79772e-06
-7.47764e-06 -1.1921e-05 -6.93757e-06
4.93258e-05 -5.84779e-05 0.000100321
-6.36651e-06 -3.76689e-05 -3.52996e-05
-0.000143797 -0.000173652 3.82753e-05
3.24139e-05 -1.6076e-05 -1.17243e-05
-3.93944e-06 -4.40334e-05 -2.05656e-05
-5.66799e-06 7.82671e-06 -6.0459e-05
-1.67289e-05 1.60631e-06 -8.95961e-06
-1.33929e-05 -1.45497e-05 1.18638e-05
0.000164645 -0.000136648 -0.000201564
1.24827e-05 8.7955e-06 4.95088e-06
7.26158e-05 5.05766e-05 -3.29042e-05
-1.55045e-07 -1.54578e-06 -5.34696e-07
-4.78289e-06 -6.3375e-06 -1.47416e-06
-1.05412e-05 1.31578e-05 8.82921e-05
-4.21779e-05 0.000132765 7.09805e-05
0.000147802 0.000128735 3.42665e-06
-1.53082e-05 -2.92635e-06 -8.98476e-06
-1.57042e-06 1.90601e-05 -1.84325e-05
8.02924e-05 -1.66665e-05 -6.06154e-06
-8.46322e-06 1.93768e-05 -1.60548e-05
-3.49112e-06 1.12369e-05 -5.85291e-07
-1.42362e-05 6.08819e-06 1.47925e-05
-4.71958e-05 -7.07366e-05 4.02292e-05
3.8583e-05 -1.18284e-05 2.31964e-05
1.34185e-05 2.13599e-05 4.24499e-05
-2.02365e-05 1.41481e-05 -0.000145846
7.32957e-05 -1.06407e-06 -2.01969e-05
4.11057e-07 -6.16711e-06 -3.6902e-05
-6.28682e-05 3.18008e-05 -9.69679e-05
-5.90715e-06 7.03565e-06 -2.8278e-06
-1.21924e-05 -3.05667e-05 -2.45275e-05
-4.16734e-06 -1.61372e-06 1.88912e-05
1.15104e-05 2.22928e-06 6.5734e-06
-0.000224292 -0.000301706 0.00074773
7.94671e-06 9.99394e-06 1.03122e-05
-5.31692e-05 9.9746e-05 -0.000570742
-5.99115e-06 -5.72365e-05 -0.00026858
5.98381e-05 1.52775e-05 1.23318e-05
-2.28714e-05 -4.96594e-06 9.65466e-06
2.3825e-05 2.35847e-05 3.28525e-05
-1.49609e-05 -9.37804e-05 -7.11199e-05
-3.24128e-06 8.47903e-05 -0.000131185
3.23628e-05 3.01702e-05 -7.02161e-05
-2.69582e-09 1.19832e-07 2.29703e-06
-4.81288e-05 -1.4342e-05 1.72515e-05
-0.000428595 0.00060279 -0.0005459
3.83679e-05 -4.08214e-05 -6.07553e-05
4.04991e-05 -0.000706737 -0.000499736
-7.37277e-05 -3.61404e-05 6.57065e-05
-0.000133376 -0.000160298 -0.000778834
-0.000268535 0.000164969 0.000524594
-0.000225812 0.00011205 -0.000163141
-1.71613e-05 -2.70897e-06 -1.56202e-05
-2.16931e-06 -7.42255e-06 -2.6747e-06
-0.00022682 0.000181668 -2.55218e-07
-8.23736e-05 -0.000165729 9.49997e-05
-9.55667e-07 3.96379e-07 -9.70608e-07
5.79146e-08 3.84196e-07 -3.73378e-07
-1.13686e-05 -2.00209e-05 1.93291e-05
1.52411e-05 -8.22852e-06 -7.57184e-06
3.48627e-05 1.05981e-05 -5.71727e-06
2.73466e-05 1.02729e-05 -4.98247e-05
0.00034215 5.23646e-05 -0.000802787
3.72522e-05 -4.14229e-06 -3.9101e-05
2.9161e-05 3.27633e-06 -2.3905e-06
3.36575e-06 1.02553e-05 3.84869e-06
-0.000171086 -0.000290578 -0.000311292
-2.12141e-05 1.68189e-05 -1.24024e-05
8.66476e-05 7.71316e-05 0.00027271
2.87057e-06 -1.54879e-05 -1.77181e-05
-1.46677e-07 3.11767e-06 -4.19243e-06
-1.29963e-05 -4.21958e-06 2.63757e-06
-0.00010857 5.86235e-05 0.000147007
-4.50472e-05 2.78861e-05 -6.71126e-05
-8.56399e-06 9.50818e-06 1.07514e-05
0.000108029 -1.83865e-07 5.0543e-05
-3.09987e-05 -2.91935e-05 8.24139e-07
0.000180077 0.000443214 0.000646153
0.000330677 -0.000132478 0.000774314