<?xml version="1.0"?>
<VTKFile type="UnstructuredGrid" version="0.1" byte_order="LittleEndian" compressor="vtkZLibDataCompressor">
 <UnstructuredGrid GhostLevel="0">
  <Piece NumberOfPoints="1220" NumberOfCells="1220">
   <PointData>
    <DataArray type="Float64" Name="Elongation" NumberOfComponents="3"/>
1.66171e-09 3.58854e-08 5.11696e-14
1.23991e-08 4.32331e-08 8.10746e-14
6.21243e-08 -3.20584e-13 1.23869e-06
1.38367e-08 7.57673e-09 2.21971e-14
3.59704e-08 4.8144e-08 2.25098e-13
1.6709e-07 -6.00738e-13 2.04803e-06
5.57641e-09 -6.08002e-09 1.11879e-15
2.23329e-08 -1.39619e-13 -1.28398e-06
5.58867e-09 -1.27571e-09 1.50204e-14
4.77891e-08 1.10159e-13 -8.28842e-07
1.94825e-08 -8.61865e-09 3.42193e-14
1.70438e-08 -4.24107e-10 5.67517e-14
-7.19689e-09 -1.20121e-08 -1.26486e-13
7.44191e-07 -3.98757e-08 1.21337e-10
-5.4964e-10 3.81284e-08 2.89074e-14
-5.12743e-09 9.29394e-09 -3.77323e-15
2.25852e-07 -9.41584e-13 -2.56489e-07
4.75144e-09 5.59643e-15 3.71996e-07
-6.28589e-09 3.80733e-09 -7.73412e-15
-2.48609e-09 2.69569e-08 6.89393e-15
3.76101e-08 -1.75951e-13 -2.64513e-07
-3.84284e-09 -4.00508e-09 -1.39656e-14
-3.32608e-08 6.27639e-14 -3.58742e-07
-4.09413e-09 -5.41396e-09 -1.14134e-14
-8.68811e-09 2.16956e-09 -2.71452e-14
-1.00119e-08 -4.71714e-10 -1.77989e-14
5.78172e-09 1.19871e-08 3.89985e-14
6.58482e-07 -1.05724e-07 8.94325e-11
1.40694e-07 -2.31712e-13 9.20838e-07
1.69496e-08 4.07883e-08 1.18432e-13
2.28301e-08 4.61895e-08 1.02422e-13
4.27002e-09 2.43706e-14 4.09549e-07
6.52688e-09 4.14943e-08 6.85207e-14
-6.14723e-08 -6.73128e-13 1.26245e-06
3.08816e-08 -2.14215e-08 9.86719e-14
8.88183e-09 1.40648e-08 3.30086e-14
-4.94194e-08 1.18203e-13 -9.30241e-07
7.82464e-09 5.66015e-10 9.77981e-15
-4.95896e-08 1.14053e-13 1.16534e-06
4.67067e-09 -1.74512e-08 -1.04302e-14
4.45513e-09 3.8763e-10 5.73021e-15
2.61068e-13 2.42911e-07 -1.07646e-06
3.81658e-07 1.9285e-12 -2.39777e-06
4.88423e-09 -1.44129e-08 3.53262e-14
5.19543e-07 2.61614e-08 4.63497e-11
2.40422e-09 -3.17669e-14 -2.32407e-06
-5.79656e-09 2.26747e-08 -3.69821e-15
-2.31705e-14 2.21906e-08 -5.00872e-08
8.31891e-08 -2.54128e-13 -2.07923e-07
-5.96276e-09 1.4008e-09 -8.44566e-15
-2.34241e-08 3.6804e-14 3.00834e-07
-6.74243e-09 -3.33276e-09 -1.19336e-14
-5.96909e-14 -5.01895e-08 -6.11303e-07
5.37451e-09 3.01051e-08 4.06011e-14
2.43769e-08 -9.90796e-14 -6.14558e-07
-5.72038e-09 -2.73936e-09 -1.2411e-14
-1.63377e-08 7.01832e-15 -1.00313e-07
-5.20493e-09 -1.23445e-08 -1.68929e-14
-2.30202e-09 6.46458e-09 -3.44057e-15
1.21216e-08 -1.25667e-08 1.65984e-14
8.86681e-08 -9.02462e-09 4.04245e-13
4.54672e-07 -2.80323e-07 4.30726e-11
7.53499e-09 3.44737e-09 2.00713e-14
5.95958e-09 1.04718e-09 -1.72545e-15
-6.17089e-09 -6.34493e-15 6.56719e-08
7.50295e-09 1.73436e-10 2.85804e-16
8.12549e-09 2.4802e-10 2.65477e-14
5.40404e-09 1.4037e-09 9.37697e-16
1.91064e-08 6.84109e-15 -8.3918e-08
5.69164e-09 2.71448e-09 2.77485e-15
-4.34436e-09 -9.96191e-15 -1.09071e-07
2.66455e-09 2.60385e-08 1.25738e-14
7.46536e-08 -8.99693e-14 6.85878e-07
4.09602e-08 3.83683e-08 6.09681e-14
2.58317e-12 2.55937e-08 -2.25643e-06
6.83686e-08 1.23706e-12 -1.12729e-06
-6.99871e-09 9.39893e-08 5.98393e-14
4.29862e-07 -2.5552e-08 2.49711e-11
6.53079e-08 -3.74029e-14 1.50744e-06
1.43678e-08 1.03236e-08 6.43772e-14
9.8638e-09 5.90065e-09 9.79024e-15
-8.36258e-14 -1.2987e-07 1.52508e-06
7.472e-09 -6.01778e-09 -6.81323e-15
9.60556e-09 4.07795e-09 3.06308e-14
3.47023e-09 6.72752e-09 1.1432e-15
3.71909e-09 -5.57777e-09 2.55766e-15
2.37153e-09 5.28022e-09 -4.0555e-15
7.80012e-13 -2.04151e-07 1.06205e-06
-1.40102e-08 -4.59485e-09 -1.83364e-14
4.17436e-08 8.04702e-09 1.4897e-13
2.28856e-07 -1.0644e-07 8.70782e-12
-7.15405e-09 -8.34457e-14 2.26655e-06
-7.25407e-09 1.01338e-08 -7.40612e-15
-5.56358e-09 5.9398e-09 3.43414e-15
-6.30171e-09 6.31713e-09 1.65672e-15
-2.72148e-13 1.22025e-07 1.70171e-06
-4.84567e-09 4.52758e-09 -1.20663e-14
-5.46413e-09 1.50407e-09 -2.7899e-15
-5.65242e-09 7.28135e-09 4.08253e-15
-3.62992e-09 -2.55762e-14 -2.22495e-07
-5.60662e-09 -4.5091e-09 2.75039e-15
-6.28783e-09 -3.37145e-09 -3.41113e-15
1.25839e-08 -1.28349e-09 3.37061e-14
-2.89973e-12 -4.86792e-07 9.38487e-08
3.15352e-09 -1.82273e-08 3.81955e-13
-4.55266e-09 2.31465e-08 9.48505e-14
-1.3103e-09 2.18296e-08 9.59925e-14
-2.05216e-09 3.47034e-08 1.4166e-13
-1.9105e-13 -1.33237e-07 6.54427e-07
-6.43209e-08 4.2759e-13 1.9985e-06
-3.7584e-08 2.06491e-08 -5.50057e-14
4.59934e-09 4.22764e-08 1.43712e-13
4.26827e-09 4.47267e-09 1.58381e-14
-4.44657e-08 -2.40758e-13 1.77184e-06
7.01842e-09 1.27972e-08 4.05622e-14
8.75905e-08 1.17641e-13 2.10321e-06
-3.29978e-09 -9.92145e-09 -4.82555e-14
6.8889e-10 6.06928e-09 2.8667e-14
1.60942e-07 -2.88264e-08 4.40601e-12
1.55846e-08 2.77454e-13 6.62929e-06
9.63615e-09 3.91571e-08 4.06456e-13
2.04606e-08 1.99028e-08 1.58863e-13
2.66159e-08 1.25818e-08 1.14621e-13
-8.25545e-10 5.22119e-09 2.7072e-14
-2.30545e-08 -3.07932e-10 -2.55657e-15
-4.36018e-09 2.79098e-09 1.24903e-14
9.49899e-13 2.02802e-07 1.35538e-06
-1.05602e-08 9.50422e-09 2.71857e-14
-1.35762e-08 4.92371e-09 2.09577e-14
9.21381e-09 -7.04912e-09 2.84466e-14
-1.63321e-08 1.45053e-08 -6.55261e-13
-4.98101e-13 -1.13202e-07 5.61747e-06
-9.67259e-09 7.35328e-07 1.1857e-10
-1.05341e-08 6.84243e-07 9.69736e-11
-3.59221e-08 4.84512e-07 4.25942e-11
1.15757e-07 3.32762e-07 2.12848e-11
-1.40506e-07 2.51757e-07 1.29384e-11
-3.70369e-07 1.42605e-07 2.48249e-11
-1.00574e-07 1.21929e-07 6.94137e-12
-3.46574e-07 3.42393e-07 3.13556e-11
-2.3569e-07 -2.2718e-12 -1.8584e-06
-4.28721e-08 -1.41164e-07 -2.07594e-12
-5.92345e-07 -6.53024e-07 7.67728e-11
-9.30685e-09 -2.27923e-08 -3.10325e-14
-3.78525e-09 -1.42115e-08 -1.03089e-14
-1.05741e-08 -1.76389e-08 -2.53692e-14
-1.75235e-08 -2.73776e-08 -8.29227e-14
-1.29096e-08 -8.23045e-09 2.18549e-15
1.70713e-07 -8.37679e-13 -2.21116e-06
7.80027e-11 4.84501e-09 6.46396e-15
-6.99119e-08 5.5553e-14 1.37299e-06
4.24676e-09 -2.21611e-09 5.15101e-15
-1.57798e-08 -4.47959e-09 -8.49361e-14
2.5663e-09 5.6794e-09 5.15992e-14
-6.65618e-07 2.46467e-08 -2.21255e-10
-4.21751e-10 -2.45046e-08 -3.98643e-14
8.92337e-10 -1.30702e-08 -1.58884e-14
7.50245e-10 -7.51866e-09 -7.47322e-15
-5.95034e-09 -5.5955e-09 -1.71654e-14
3.16438e-09 -4.36035e-09 -3.26961e-15
-4.22812e-14 3.32631e-09 -5.83874e-07
6.80904e-10 -4.29064e-09 -3.92674e-15
-5.79878e-09 -1.93062e-09 -1.0167e-14
-1.10443e-09 -1.03432e-08 -1.41147e-14
-1.52272e-08 -3.58818e-09 -2.12817e-13
2.96258e-07 3.51163e-12 -1.72615e-06
-5.88316e-07 3.82691e-08 -1.65316e-10
9.28452e-09 -2.562e-08 -3.22499e-14
-1.16532e-14 -2.67269e-08 8.64137e-08
-4.57684e-09 -2.25161e-08 -3.80268e-14
-3.33423e-10 -1.26168e-08 -1.8591e-14
-5.03773e-09 -2.70903e-09 -1.46962e-14
3.68118e-10 -4.3135e-09 -5.58e-15
1.16584e-09 1.19135e-09 2.52224e-15
2.84891e-10 -3.24863e-09 -3.71088e-15
-5.18248e-09 6.91305e-09 -5.79054e-15
-7.21399e-09 -1.4958e-08 -1.1637e-13
-4.31689e-07 -2.80947e-08 -8.6123e-11
5.80216e-09 -2.29209e-14 -2.74268e-06
-1.07386e-08 -4.92506e-09 -1.19268e-14
-6.17456e-09 -6.39946e-09 1.68651e-15
-3.3242e-09 -4.18771e-09 -3.28994e-15
-4.57399e-09 1.55255e-09 -5.92497e-15
-2.47046e-09 -7.03526e-09 -7.65188e-15
2.07855e-10 -9.7057e-09 -9.07974e-15
-1.08861e-09 -3.57635e-09 -5.65822e-15
-4.18269e-09 4.38755e-09 -1.08238e-14
-2.13685e-08 1.14896e-08 -1.77339e-13
2.48635e-07 1.98576e-12 -4.76172e-07
-3.27357e-07 2.31323e-07 -5.52928e-11
-1.46696e-08 6.88207e-13 -7.47593e-06
3.24571e-09 -2.59767e-09 2.11834e-15
2.78953e-09 -9.7812e-10 1.61935e-15
-1.47767e-15 1.07981e-09 1.66938e-09
5.96179e-09 -1.54481e-09 6.24143e-15
-1.06658e-14 8.06068e-09 5.09577e-09
1.10645e-09 -6.59508e-10 1.61576e-15
5.19874e-11 -1.07465e-09 -2.96055e-16
5.51063e-10 -3.17808e-09 -2.57425e-16
2.05538e-08 1.47185e-14 9.78123e-08
-6.6249e-10 8.38198e-09 1.39004e-15
-3.63406e-09 3.91081e-15 8.51816e-08
-7.56676e-09 -4.82264e-08 -3.57641e-14
7.12705e-08 7.51482e-14 -8.94515e-07
-2.55073e-08 -5.77149e-08 -2.79508e-13
-3.30055e-12 -1.89152e-07 2.02288e-06
1.50607e-07 -9.06457e-14 1.32404e-06
-3.36357e-07 6.93301e-08 -4.07768e-11
-2.16315e-06 -3.78429e-10 3.71476e-06
-1.2023e-08 -3.79701e-09 -6.19928e-15
-1.15731e-08 6.07252e-10 -5.47311e-15
-5.85227e-09 -4.55392e-12 -4.75831e-15
-8.41066e-09 -5.00504e-15 -1.16612e-08
-1.34606e-09 -1.6789e-10 -4.27981e-15
-3.61767e-09 4.19402e-10 -2.58746e-15
-6.44237e-09 2.1738e-10 -7.12863e-15
-2.72317e-09 -6.72805e-11 -4.35848e-15
-1.27923e-08 1.6542e-09 -2.47381e-14
-4.01238e-08 -2.2446e-09 -2.78277e-13
-1.33439e-07 6.37217e-08 -9.32109e-12
-3.36297e-08 -1.71055e-13 5.66705e-06
1.6562e-09 -5.27059e-09 -2.81703e-15
-4.51244e-13 -2.23044e-08 -2.26601e-06
1.37989e-09 -6.21155e-09 -5.73921e-15
2.69976e-13 -5.55533e-08 -1.6803e-06
-4.02477e-09 -5.47548e-09 -1.02533e-14
3.05477e-13 -1.00932e-08 -1.78081e-06
2.51345e-10 -2.98389e-09 -2.07868e-15
3.9251e-11 -1.94994e-09 -1.49518e-15
-2.1099e-10 -2.76468e-12 -4.44023e-16
2.26506e-09 -2.29893e-09 5.02069e-15
2.51191e-10 1.50646e-09 7.34413e-16
1.39265e-08 -5.23245e-09 1.0953e-13
-1.76211e-12 -1.69945e-09 -1.82253e-06
-4.60027e-08 2.45159e-08 -3.64148e-12
1.3763e-13 9.00576e-08 1.68623e-06
-1.93498e-08 -3.63129e-13 -6.85792e-06
2.8724e-09 -2.44129e-08 -1.82757e-13
6.87176e-09 -1.83108e-08 -1.14885e-13
-1.26112e-12 -1.25527e-07 -5.66427e-08
8.07121e-09 -1.08479e-08 -5.97254e-14
1.88598e-08 -3.07162e-08 -7.18112e-14
-1.38052e-12 -1.11317e-07 -7.19548e-07
9.86026e-10 -2.09833e-08 -9.73893e-14
-1.88522e-08 -2.50487e-13 1.31197e-06
-2.03502e-09 7.1834e-09 3.65084e-14
4.13341e-09 -1.70109e-13 1.3648e-06
-2.80399e-09 -8.20663e-09 -4.03968e-14
1.74999e-08 5.65131e-13 -1.92148e-06
-2.45643e-10 -7.01718e-09 -3.09757e-14
-8.38397e-09 -1.03937e-08 -9.84683e-14
-3.65924e-08 3.84885e-09 -1.76088e-12
2.83538e-13 1.42529e-07 -1.14217e-05
-1.38148e-08 -3.66666e-08 -7.2515e-13
-2.04728e-08 -1.21753e-08 -2.42605e-13
-2.16245e-08 -1.05089e-08 -1.64522e-13
-6.33015e-09 -2.49127e-09 -4.55198e-14
1.30868e-08 -5.47987e-10 5.1889e-15
-6.45614e-12 -2.84217e-10 -1.59183e-15
2.1651e-09 8.17543e-10 2.8411e-15
-1.0315e-12 -6.91785e-09 -1.38449e-06
-2.48254e-10 2.91301e-09 1.17368e-14
5.99591e-08 -1.35636e-12 2.81513e-06
-6.20007e-09 -4.04496e-09 -3.45878e-14
-2.65583e-09 8.23914e-09 -3.27915e-13
-2.65803e-14 1.60076e-07 5.13857e-06
1.60013e-08 -6.63602e-07 -2.23184e-10
1.83992e-08 -6.07965e-07 -1.7749e-10
6.83878e-09 -4.27748e-07 -8.57675e-11
-1.03799e-07 -2.76815e-07 -3.86136e-11
1.14263e-07 -1.74772e-07 -1.94148e-11
2.23796e-07 -9.77509e-08 -2.01192e-11
6.00657e-08 -7.35898e-08 -7.19779e-12
4.39778e-08 -7.40653e-08 -6.16858e-12
2.4095e-09 -4.69753e-08 -2.35935e-12
4.99925e-07 5.20079e-07 -1.0838e-10
-2.35141e-09 6.70105e-09 4.45296e-15
9.16664e-10 5.01816e-09 2.55125e-15
1.11748e-08 9.80596e-09 1.1312e-14
3.64898e-09 8.7641e-09 5.09814e-15
9.59464e-09 1.52564e-08 7.7411e-15
1.79139e-07 -1.30358e-12 1.45904e-06
1.40577e-09 8.83145e-09 5.12437e-15
8.51954e-09 -1.03619e-13 -8.89499e-07
9.43132e-10 2.36972e-09 5.68072e-15
-4.61665e-08 -1.16672e-13 -6.16416e-07
1.42543e-08 1.84668e-09 8.58049e-14
2.38333e-08 9.01611e-14 3.92054e-07
-1.92261e-09 -3.71373e-09 -2.26512e-14
6.1042e-07 1.45625e-11 -1.51114e-06
5.12503e-07 -1.59895e-08 2.27149e-10
4.16949e-09 2.70953e-09 7.3164e-17
-1.10202e-09 8.58444e-09 8.21166e-15
-2.35955e-09 4.00202e-09 1.99286e-15
1.10058e-14 -2.55819e-08 2.27604e-07
-6.23692e-10 2.73492e-09 1.5636e-15
3.17459e-09 4.33387e-09 3.28961e-15
-7.26825e-10 4.40909e-09 3.27527e-15
2.34728e-09 4.59696e-09 1.01953e-14
-5.58529e-08 -2.55297e-13 -5.23706e-07
-8.10383e-10 -4.52469e-09 -1.26018e-14
-7.16385e-08 -5.54623e-13 -8.41172e-07
2.57308e-08 1.39088e-08 4.88958e-13
4.44159e-07 -2.95224e-10 1.70477e-10
4.29965e-08 -1.18608e-13 1.08368e-06
1.20867e-09 5.96414e-09 3.8268e-15
1.84484e-09 3.84028e-10 -1.73032e-15
8.04784e-10 -1.54886e-09 -1.30553e-15
-4.29952e-09 4.50232e-09 2.58594e-15
7.79684e-10 -1.96228e-10 5.17545e-17
2.59569e-09 3.8543e-09 4.04372e-15
1.77394e-09 8.33805e-09 5.60476e-15
4.70447e-09 7.01258e-10 1.34745e-14
1.151e-08 1.49058e-08 1.3898e-13
3.06634e-07 7.3483e-09 8.93133e-11
1.25588e-09 -5.10513e-14 -1.85584e-06
-9.49782e-09 4.87711e-09 8.48815e-15
-2.96033e-09 6.62894e-09 5.33807e-15
-2.7726e-09 4.98976e-09 1.581e-15
-3.16763e-09 -1.88569e-09 -2.73613e-15
-9.34677e-10 5.5123e-09 4.1885e-15
-6.42436e-10 5.50367e-09 4.37988e-15
1.04317e-08 2.52288e-14 -6.98192e-08
1.03004e-09 4.05917e-09 5.65191e-15
2.66322e-09 -6.34902e-14 -2.90252e-07
2.0065e-09 -6.0946e-09 -5.80388e-15
-1.34933e-08 5.54231e-09 -1.26103e-13
1.61301e-07 -1.08372e-07 3.01265e-11
3.83274e-13 -6.86143e-08 3.32147e-06
4.88143e-09 2.91685e-09 1.3372e-15
3.63971e-09 9.48196e-10 4.65443e-16
8.28513e-09 1.6181e-09 5.69435e-15
1.25327e-09 1.08522e-09 1.34966e-15
3.52225e-10 3.64547e-10 2.49221e-16
3.73116e-10 -2.6869e-09 -3.29109e-16
1.50991e-09 -4.39748e-09 1.81467e-15
-1.55903e-08 -5.43874e-08 -2.71426e-14
-1.697e-08 -6.86793e-14 7.6212e-07
-5.63684e-09 -6.35403e-08 1.31952e-14
1.576e-07 3.47645e-12 -1.21552e-06
2.35687e-07 4.47254e-08 3.93543e-11
4.4689e-08 -1.94437e-13 3.52041e-06
1.29466e-09 1.01868e-09 3.68348e-16
-3.86373e-09 2.40319e-09 -5.892e-16
2.89115e-09 9.04531e-10 2.43928e-15
6.912e-09 2.03616e-10 6.431e-15
2.48294e-09 4.86556e-10 1.8381e-15
5.33798e-09 -9.65824e-10 5.32036e-15
2.47526e-09 6.50952e-10 6.37032e-15
7.66375e-09 -2.39652e-09 1.14832e-14
-1.34096e-08 -2.22112e-14 -9.97491e-09
-2.5381e-09 7.66511e-10 -1.74098e-14
8.44144e-08 -3.41886e-08 9.96161e-12
-8.11211e-10 -1.74464e-14 7.16662e-07
1.10827e-09 3.14271e-09 2.90277e-15
7.02437e-10 2.45293e-09 2.81184e-15
-5.05903e-09 2.68936e-09 -1.14634e-15
-2.90946e-09 1.99849e-09 -1.40595e-15
-4.30487e-10 1.43952e-09 7.27925e-16
-1.26189e-09 -5.25943e-11 -2.10183e-15
5.60049e-10 1.80931e-09 1.92008e-15
2.81082e-10 -1.57792e-09 2.04966e-16
8.4573e-09 3.58928e-09 3.99758e-14
-6.65648e-08 1.78621e-08 -6.19553e-12
6.5497e-09 5.70538e-14 2.33825e-06
-2.04459e-09 1.87769e-08 1.49285e-13
-3.98137e-09 1.47556e-08 1.00125e-13
-8.17885e-10 9.84242e-09 5.60215e-14
7.2159e-09 -1.52747e-08 -7.15003e-14
5.25108e-10 7.00187e-09 2.45389e-14
7.36015e-09 1.29296e-08 3.8472e-14
3.48856e-09 1.70357e-08 6.06993e-14
2.36417e-09 -2.68791e-09 -6.26096e-15
6.12089e-10 3.28659e-09 1.38818e-14
-2.28989e-07 2.95312e-08 -1.67704e-11
-3.51491e-13 8.35314e-08 9.36879e-06
1.25899e-09 1.20799e-13 -2.84357e-06
1.12367e-08 3.17606e-08 7.93477e-13
1.0709e-08 7.54442e-09 1.51153e-13
1.42526e-08 6.71266e-09 1.23212e-13
8.8345e-09 3.71468e-09 3.9644e-14
-3.96774e-09 2.47253e-10 1.49642e-14
2.10357e-09 1.53112e-09 8.50516e-15
1.27176e-09 -1.48357e-11 7.50465e-17
1.81982e-09 3.93179e-09 2.50295e-14
1.43886e-07 -1.0034e-12 -2.00894e-06
4.76051e-09 -1.38193e-10 3.59341e-14
5.22296e-08 -2.66828e-09 3.61443e-12
1.01894e-13 1.94672e-07 -1.12435e-05
1.79802e-07 -3.5541e-13 -2.86864e-06
-2.02964e-08 5.16134e-07 2.28552e-10
-1.52248e-08 4.56455e-07 1.71662e-10
1.64839e-08 3.20985e-07 9.5192e-11
4.94743e-08 1.97292e-07 4.02203e-11
-6.03419e-08 1.16211e-07 1.83006e-11
-3.37438e-08 2.3215e-08 2.29172e-12
1.70254e-08 -7.63674e-08 -6.43934e-12
1.30546e-07 -2.12005e-07 -1.51898e-11
1.63107e-08 7.4412e-08 4.71848e-12
-2.71137e-07 -2.69149e-07 6.40002e-11
1.12365e-12 2.55237e-07 -4.22924e-06
1.79747e-09 5.20035e-09 -2.76058e-15
7.15042e-10 2.51637e-09 -1.82159e-16
1.27602e-09 -5.7369e-10 -9.70608e-16
9.98007e-09 1.94489e-08 -5.91735e-15
-6.0534e-09 1.66224e-09 -1.85522e-15
-1.77811e-10 -1.3352e-08 2.25555e-15
-4.47543e-09 1.09358e-08 -1.99897e-14
-1.38441e-08 -1.18247e-13 4.72739e-07
-1.70168e-09 -2.86196e-09 -5.79787e-15
-1.62044e-08 -3.3234e-08 -4.4143e-13
-3.48855e-07 6.57871e-09 -1.78469e-10
3.66778e-09 7.45567e-09 -1.04459e-15
-2.77476e-10 -1.35089e-09 -3.94333e-16
-2.18185e-09 -2.42305e-09 8.88948e-16
5.51357e-10 2.15462e-09 1.62508e-16
2.01737e-09 8.30704e-10 1.24136e-15
-7.00872e-14 5.45011e-08 -3.16833e-07
-7.35246e-10 4.00743e-09 4.75976e-16
-5.20109e-09 -6.65492e-09 -1.92905e-14
-1.70223e-10 1.74157e-09 -7.94641e-16
-3.19947e-08 -1.36849e-08 -8.63491e-13
-2.87589e-07 -8.78237e-09 -1.27357e-10
5.47278e-09 7.13358e-09 -6.27547e-15
3.4933e-09 1.08858e-08 -2.05468e-15
-5.0499e-10 6.86906e-09 -7.02753e-16
7.98899e-09 -4.23818e-09 -8.64189e-15
3.96881e-10 -1.15874e-09 3.84814e-16
-2.6003e-09 -5.33926e-09 -2.1859e-15
-9.17964e-10 -5.24886e-09 -1.80903e-15
-3.403e-09 6.47276e-10 -1.40546e-14
-1.04855e-08 -1.52793e-08 -1.95399e-13
-1.89318e-07 4.99857e-09 -6.57176e-11
-1.70009e-09 8.75406e-15 -4.17441e-07
-8.99286e-09 1.59802e-09 1.28474e-14
-7.35398e-11 -2.50159e-09 -1.7599e-15
4.92376e-14 -1.0025e-07 1.53872e-08
-5.45077e-10 -3.14112e-09 -1.839e-15
1.04043e-14 -1.83542e-08 -5.75841e-09
-8.23065e-10 3.03423e-09 2.26356e-15
-2.84416e-10 2.95174e-09 1.61445e-15
-1.1001e-10 1.30801e-09 5.66179e-16
-9.37643e-10 -3.13768e-09 -3.46355e-15
-1.77629e-09 -2.34005e-09 -1.68662e-15
1.82823e-09 -1.19193e-09 2.48646e-14
-3.6355e-08 3.19779e-09 -8.789e-12
3.73619e-08 5.31065e-14 -3.88445e-07
6.99452e-09 -3.29339e-09 -8.62746e-15
1.88161e-09 -2.75522e-09 -1.19564e-15
6.35257e-09 -2.60452e-09 3.04356e-15
-3.87423e-14 1.73551e-08 2.45652e-08
1.40302e-09 -1.04199e-09 -1.79407e-15
-6.74687e-12 -7.74674e-10 -2.82253e-16
-8.3734e-12 -2.76202e-10 -1.0361e-16
4.16728e-10 9.17542e-09 4.15901e-15
1.39364e-08 2.34107e-09 5.49447e-14
2.18009e-13 -1.40146e-07 4.64504e-08
7.92892e-09 6.67323e-08 6.2381e-14
1.21971e-07 2.43495e-12 5.74372e-07
-5.01417e-08 1.97689e-08 -9.63257e-12
-2.73352e-10 -1.07879e-10 -2.74125e-17
5.60879e-09 7.1781e-10 1.31006e-15
-6.85661e-09 -4.17582e-10 -4.80934e-15
-9.44349e-09 -1.84298e-10 8.32149e-15
-1.13469e-09 1.20919e-10 -1.64262e-16
2.13708e-09 -1.7619e-09 1.32612e-15
-1.89625e-09 1.06521e-09 -3.36681e-15
-3.57716e-09 3.35266e-11 -9.79641e-15
7.28565e-09 1.00811e-09 6.15265e-14
-2.56021e-08 3.69722e-09 -4.07546e-12
-5.13802e-10 4.28574e-10 9.99227e-16
1.52383e-10 -1.2927e-09 -1.20214e-15
4.23695e-09 -9.74233e-15 -8.77772e-08
-4.58443e-09 -1.26364e-09 -3.38225e-15
-3.05368e-08 -3.38753e-14 -1.3276e-07
2.7516e-10 -2.14168e-09 -1.24514e-15
3.29553e-13 1.36463e-08 -8.38342e-07
-1.82762e-10 -8.61837e-10 -3.07358e-16
-1.46407e-09 -2.01551e-10 1.10943e-15
-4.99931e-10 -1.69231e-09 -1.80211e-15
-4.09775e-10 1.26227e-09 -1.17772e-15
1.63187e-09 -7.13766e-10 1.23548e-14
2.65697e-07 7.0428e-09 3.281e-11
4.18541e-09 1.02868e-14 7.47001e-07
2.43685e-09 -1.0115e-08 -7.36462e-14
2.28237e-09 -8.76681e-09 -5.32332e-14
4.52399e-09 -4.0282e-09 -1.45468e-14
-1.01183e-08 6.62723e-09 2.58953e-14
1.20858e-10 7.02705e-09 1.30977e-14
-5.43591e-09 -2.38892e-09 -2.27268e-14
-1.23536e-09 -1.59e-09 -5.80394e-15
-3.323e-09 -1.88848e-09 -5.43545e-15
-4.34617e-10 -1.25436e-09 -1.26953e-15
4.86953e-07 -9.65367e-09 4.92994e-11
4.38284e-08 1.23631e-13 -4.00024e-06
-9.13588e-09 -2.39817e-08 -7.0221e-13
-1.22941e-09 -8.79333e-10 -1.94702e-14
-6.00247e-09 -2.62829e-09 -4.87564e-14
-7.7766e-09 -2.46766e-09 -1.20147e-14
-6.37643e-09 -1.12519e-10 -8.60022e-15
-2.6532e-09 -9.85437e-10 -1.45171e-14
-4.93002e-10 2.88207e-10 -3.8917e-16
-5.34416e-09 -3.64767e-09 -4.57148e-14
-7.65807e-10 1.2752e-10 -6.04945e-15
-1.26134e-07 4.43977e-08 -1.40924e-11
6.33653e-08 -2.43827e-12 6.38005e-06
1.50004e-08 -3.56494e-07 -1.81144e-10
9.76476e-09 -2.93016e-07 -1.25456e-10
-2.41892e-08 -2.07058e-07 -7.28417e-11
-9.99764e-09 -1.16301e-07 -2.97113e-11
2.32328e-08 -5.20571e-08 -9.97993e-12
-9.11118e-08 3.64407e-08 -1.19295e-12
-3.97734e-09 2.94625e-07 3.73474e-11
-1.05096e-07 5.20822e-07 4.60109e-11
2.00573e-08 -1.31649e-07 -1.23221e-11
2.80189e-09 -1.19321e-08 9.45413e-13
1.72271e-08 -1.98411e-12 8.72815e-06
8.48672e-08 2.00011e-13 -1.20712e-05
-6.84303e-10 -1.00439e-08 6.81897e-15
-1.51955e-09 -7.53526e-09 4.27501e-15
-6.10702e-09 -8.65505e-09 2.81169e-15
-1.19137e-08 -1.86155e-08 3.08137e-14
-7.81714e-09 -5.70341e-09 1.90178e-15
3.95784e-10 -1.66933e-09 1.50056e-15
1.89572e-10 4.25919e-09 -3.04983e-15
4.87434e-10 4.50707e-10 2.55345e-15
2.18195e-08 2.37322e-08 9.50227e-13
2.13883e-07 -1.49632e-09 1.07629e-10
-4.3145e-09 -9.94045e-09 7.01093e-15
-2.65735e-10 -3.85295e-09 7.29691e-16
-4.67641e-10 -1.99102e-09 4.07278e-16
-1.83919e-09 -5.80455e-09 4.56357e-15
2.28056e-09 -8.40429e-10 3.2664e-17
2.13414e-10 -1.22808e-09 4.05592e-16
3.69723e-09 6.68185e-09 7.10851e-15
-6.42958e-10 -5.62883e-09 9.42472e-16
-7.63114e-08 -5.56913e-13 -4.27014e-07
2.6e-08 9.11729e-09 8.07907e-13
1.61936e-07 2.69904e-09 6.85886e-11
5.10402e-09 -1.49107e-08 3.49756e-15
-4.78879e-09 -1.54589e-08 1.11945e-14
5.14494e-10 -6.38851e-09 3.3053e-15
-4.96253e-09 5.08868e-09 6.52953e-15
1.0277e-10 -1.21462e-09 6.0696e-16
1.68043e-09 1.6583e-09 4.0233e-16
7.95075e-10 1.93088e-09 6.62327e-16
2.993e-09 -4.4186e-10 1.18771e-14
8.12925e-09 7.92066e-09 1.74831e-13
1.02059e-07 -7.2602e-10 3.25058e-11
-1.10165e-08 2.48373e-09 9.253e-15
1.55948e-09 -2.17493e-09 -1.33554e-15
7.69475e-10 -2.62662e-10 -2.90754e-16
-2.73452e-16 -2.12294e-09 -1.24511e-09
-2.94128e-09 -2.32103e-09 4.43791e-15
4.90807e-10 -4.06143e-09 -3.98773e-16
1.98608e-10 -1.22018e-09 9.73456e-17
-3.98967e-10 -8.37165e-10 -5.148e-16
-3.82564e-09 4.54188e-10 -9.94236e-15
2.42583e-09 -7.31811e-10 3.057e-14
-2.9713e-08 5.55265e-08 -6.68707e-12
5.13756e-09 -2.73644e-09 -6.55702e-15
1.31265e-09 3.50172e-09 1.39176e-15
-3.27033e-14 1.88509e-08 -1.25937e-08
2.00289e-09 1.82724e-09 4.41078e-16
-1.2503e-15 7.92054e-10 2.74568e-10
1.43979e-09 1.21818e-09 -2.0234e-15
-7.91099e-10 7.63349e-10 2.40907e-16
-7.37868e-12 4.27994e-10 1.34133e-16
1.17906e-10 2.67778e-09 7.59452e-16
-2.43829e-09 -1.22881e-08 -1.20121e-14
-4.27113e-09 -1.71553e-08 -1.81685e-14
-8.15413e-08 -3.31964e-08 -1.32314e-11
-8.90619e-09 9.63108e-13 1.86423e-05
-1.9173e-09 -7.84339e-10 1.94328e-15
1.53419e-13 7.44585e-08 3.68239e-07
-6.02866e-09 2.98939e-11 8.79835e-16
3.80954e-13 8.09763e-08 5.21178e-07
-3.81351e-09 -5.45611e-10 -6.79298e-16
1.84577e-13 5.21398e-08 5.09627e-07
-3.16057e-09 2.6911e-10 5.48668e-15
8.56668e-11 2.90521e-10 4.61713e-16
-2.4845e-09 -5.3406e-10 -2.58853e-15
4.68728e-10 1.47358e-09 2.62664e-15
8.22838e-11 -3.01203e-10 -2.30137e-16
-8.88442e-09 -2.58411e-10 -8.2349e-14
-2.38355e-08 1.87628e-08 -3.74377e-12
-8.62532e-10 -6.93081e-09 -5.05934e-15
1.47868e-13 8.14874e-08 8.08261e-07
-8.0626e-11 1.58114e-09 1.11848e-15
-5.17063e-09 1.14153e-09 7.84957e-16
1.0461e-09 -6.01778e-10 -2.57357e-15
-1.92245e-10 1.49318e-10 2.81383e-17
-8.61119e-10 5.76178e-10 -1.21421e-15
-2.28962e-11 1.53038e-09 8.05064e-16
1.48612e-10 -6.13309e-10 1.62217e-16
1.3476e-10 -1.66708e-09 4.28789e-15
-3.54204e-07 -6.00376e-08 -5.22417e-11
1.78082e-10 2.31238e-09 1.21104e-14
-8.25943e-10 2.0788e-09 9.18363e-15
1.2221e-09 6.29404e-10 1.65523e-15
6.90647e-09 -4.85334e-09 -1.87511e-14
3.71827e-10 -1.05272e-08 -4.64036e-15
-1.95869e-09 -1.65877e-09 -4.716e-15
-2.78373e-09 -7.46901e-09 -2.2944e-15
2.48527e-09 -6.15374e-10 9.89886e-15
-5.07955e-10 -3.48334e-09 2.29553e-15
-3.7245e-07 -2.15506e-08 -5.01832e-11
4.00687e-09 1.40458e-08 4.40873e-13
-5.79245e-09 -2.1976e-09 -4.1463e-14
-3.2734e-09 3.54758e-10 9.03005e-15
1.74736e-09 1.03766e-09 7.17689e-15
1.0501e-08 7.03137e-10 3.56409e-14
1.63651e-09 1.15982e-09 1.38444e-14
7.13629e-10 3.36716e-10 4.53226e-15
2.04229e-09 2.52784e-09 2.11776e-14
-5.55672e-09 1.34524e-10 -2.17192e-17
7.04254e-08 -5.15678e-08 1.11992e-11
-2.74596e-12 7.60001e-08 -8.5908e-06
-7.52798e-09 2.20595e-07 1.10698e-10
-4.36897e-09 1.58593e-07 6.66896e-11
1.82057e-08 1.15341e-07 3.68709e-11
-2.67859e-09 4.21087e-08 9.77295e-12
2.77776e-09 -1.86706e-09 -3.54752e-13
1.2356e-07 -4.57033e-08 -2.81332e-12
-3.16101e-08 -3.78167e-07 -5.80701e-11
2.43734e-08 -4.04422e-07 -5.55486e-11
-4.40904e-08 5.80348e-08 9.04849e-12
1.60207e-07 1.71636e-07 -2.83725e-11
4.3226e-08 -6.67328e-14 7.47197e-06
9.25498e-11 -9.59795e-09 8.33351e-15
-2.59202e-09 -1.11517e-08 1.09721e-14
-7.41324e-09 -8.85883e-09 1.03259e-14
-6.40968e-09 -7.13589e-09 1.96546e-14
-5.98141e-09 -4.18151e-09 7.36379e-15
-6.43796e-10 -7.6206e-09 5.84256e-15
-2.10649e-09 1.91503e-09 -2.96339e-15
-1.26762e-09 -6.77901e-10 -5.29572e-15
1.96084e-08 1.7957e-08 7.14553e-13
1.21792e-07 4.8022e-10 5.38697e-11
6.10939e-10 -7.84108e-09 4.49671e-15
1.45621e-09 -6.04591e-09 3.2317e-15
2.68849e-10 -2.60711e-09 1.26519e-15
-1.08553e-09 -7.22978e-09 5.51453e-15
-4.96289e-10 1.39562e-09 -3.30569e-17
1.56988e-12 1.72817e-10 -8.49961e-17
-5.96224e-10 -3.50771e-09 2.80571e-15
2.43898e-10 2.00615e-09 -2.30962e-15
1.14838e-08 1.41873e-09 3.26787e-13
8.26454e-08 1.4733e-09 2.98099e-11
-9.09517e-09 -1.15249e-08 1.32714e-14
-4.64417e-09 -1.05687e-08 4.4831e-15
-3.40592e-15 -1.31305e-08 -1.42407e-08
-3.39121e-09 -2.83432e-09 3.32568e-15
-4.56505e-09 1.61748e-09 5.15474e-15
-6.24671e-10 -4.04835e-09 2.82342e-15
-8.38803e-10 -7.82213e-10 5.00096e-16
-2.57269e-10 -2.06489e-09 8.19928e-16
2.23964e-09 -7.25149e-11 5.6513e-15
4.51132e-09 2.54623e-09 8.56879e-14
4.53523e-08 3.77107e-09 1.15314e-11
3.32929e-13 -8.18159e-08 -9.88312e-06
3.04623e-09 3.51629e-14 -1.15382e-06
5.14005e-09 -4.29164e-09 -3.20257e-15
-9.90307e-10 -1.45558e-09 -1.64384e-16
-5.23223e-09 -2.05699e-09 2.64645e-15
-4.50885e-15 -5.67053e-09 -1.63954e-08
8.22493e-10 -2.32686e-09 -9.42483e-16
-1.11036e-09 -1.20638e-09 8.04728e-16
-1.43309e-14 -2.20837e-08 -3.79094e-08
1.60346e-10 -1.21714e-09 6.37187e-16
-8.40229e-10 -2.96146e-09 2.22376e-15
-9.90879e-10 2.14272e-09 -2.07765e-15
-5.0631e-10 -7.19073e-11 -5.56744e-15
-5.53753e-08 6.61439e-08 -9.081e-12
3.12757e-13 1.0445e-07 -9.83337e-06
-4.25454e-09 -1.48773e-09 1.58841e-15
-2.24062e-14 1.6914e-08 -4.96047e-09
-7.40884e-10 -7.16439e-10 -3.019e-16
-2.21411e-09 8.86009e-11 1.19679e-15
-8.2299e-15 5.82585e-09 1.08934e-08
-2.56489e-09 8.05889e-10 3.80003e-15
5.10823e-10 -5.21733e-10 -4.18068e-16
5.96563e-10 1.67996e-10 -2.54853e-16
-5.74808e-10 2.63151e-09 9.53317e-16
1.89817e-09 5.45127e-09 4.73184e-15
-1.66849e-09 -4.47778e-10 -1.14507e-14
-1.29073e-07 -1.69535e-08 -1.47278e-11
-1.95648e-09 5.35894e-10 1.97843e-15
5.06297e-09 3.42774e-10 9.96043e-17
-7.47081e-09 1.88635e-09 5.8868e-15
3.13639e-13 9.25267e-08 -3.26692e-07
-3.84538e-09 -1.03926e-10 6.01078e-15
-7.16603e-10 -4.49104e-12 2.56413e-16
-1.41346e-09 5.77493e-10 1.39627e-15
3.57015e-14 5.48843e-08 -3.46648e-07
-2.66944e-10 -1.08786e-09 -1.31963e-15
-1.99298e-09 -8.6128e-11 -3.44956e-15
-7.7977e-09 -1.08351e-09 -6.3687e-14
-5.22182e-08 2.4229e-08 -6.13237e-12
-1.78861e-08 -9.40319e-15 1.1162e-06
1.09711e-09 -4.00882e-09 -6.05938e-15
7.77133e-11 -3.05097e-09 -1.84067e-15
4.53489e-09 1.00181e-10 -6.36645e-15
-2.99646e-10 -1.58056e-09 1.42908e-16
1.63804e-10 -3.8104e-10 -2.71897e-16
1.73756e-09 1.06987e-09 1.64364e-15
8.72717e-10 7.17667e-10 -1.36433e-16
9.18615e-12 1.34059e-10 -6.39483e-17
-1.02712e-09 -2.42421e-09 5.64748e-15
1.88163e-07 -1.76098e-08 2.52794e-11
5.80811e-10 -4.16374e-09 -1.39066e-14
1.01209e-09 -3.39866e-09 -8.21336e-15
-1.50851e-11 -4.14942e-09 -3.14085e-15
-3.08377e-12 -1.58682e-07 -4.38869e-08
2.45477e-09 -1.94584e-09 -4.3237e-15
2.47403e-12 -8.45691e-09 3.97881e-15
-6.18199e-09 -3.86717e-09 2.94322e-15
-5.08319e-13 -4.19932e-08 -1.49603e-07
-4.17195e-09 -1.1128e-08 1.27813e-14
3.32072e-08 5.16669e-14 -3.65081e-07
5.7681e-10 6.52157e-11 1.62175e-15
-2.34542e-09 -5.60373e-09 4.75184e-15
4.98292e-07 -4.64613e-08 1.02478e-10
3.79184e-11 3.79285e-08 -1.69783e-06
-2.26086e-13 -8.71516e-08 -1.08116e-05
3.48525e-10 3.93303e-09 1.16649e-13
-6.90847e-09 -1.97581e-09 -1.55909e-15
-6.96691e-09 -3.29662e-10 3.44142e-14
-4.22904e-09 -9.32783e-10 5.2804e-15
4.41512e-09 7.50431e-11 -4.09352e-15
1.50199e-09 1.26711e-10 1.5244e-15
1.07463e-09 5.30983e-11 6.54073e-17
-1.93015e-09 -1.891e-09 -1.51129e-14
-6.72754e-09 1.67685e-10 -6.09258e-14
-2.99985e-07 -5.12939e-09 -4.42307e-11
-2.83483e-12 6.04441e-08 -9.90273e-06
-1.44321e-08 3.11165e-13 2.30369e-06
-2.23749e-09 1.2128e-07 5.35034e-11
-1.84846e-09 7.00425e-08 2.52763e-11
1.35674e-08 4.94593e-08 1.24337e-11
-7.72355e-09 -1.58544e-08 -2.78208e-12
1.99728e-08 -4.01779e-08 -5.26237e-12
9.25416e-08 -3.37808e-08 -3.6184e-12
9.48256e-09 1.72301e-07 2.24862e-11
-6.75997e-08 4.85446e-07 9.81127e-11
-5.0321e-08 4.37738e-11 -1.90069e-06
-2.30029e-08 -2.93786e-07 -4.17985e-11
8.38562e-08 7.84496e-08 2.90185e-12
2.78582e-11 -1.06111e-07 -1.25249e-05
3.91419e-09 -1.42016e-13 5.1344e-06
1.12862e-09 6.05209e-09 -5.04666e-15
1.75217e-09 6.69085e-09 -5.24506e-15
3.22764e-09 2.50948e-09 -3.34161e-15
1.71543e-09 2.99953e-09 -4.21299e-15
2.91044e-08 7.9972e-14 -2.75844e-07
4.582e-09 4.53291e-09 -3.81056e-15
8.56103e-10 6.06774e-09 -4.92976e-15
1.55068e-09 -2.7836e-09 -4.01731e-16
2.6374e-09 1.00153e-09 9.00221e-15
-7.84151e-09 -4.82507e-09 -1.53479e-13
-3.70494e-08 -9.98956e-10 -1.31874e-11
-4.40003e-15 -6.67947e-09 -2.88853e-09
3.15062e-09 3.94687e-09 -3.28833e-15
1.07941e-09 4.58528e-09 -3.32617e-15
-1.82431e-09 2.20375e-09 -6.79392e-16
1.23585e-09 3.67874e-09 -3.93774e-15
-6.50376e-10 -6.04137e-10 9.83622e-16
5.24454e-10 -4.68339e-10 -2.20034e-16
3.24336e-09 3.69808e-09 -7.96472e-15
-1.98593e-10 -1.75731e-09 -9.22597e-16
6.25033e-09 3.26349e-09 9.70295e-14
-1.70788e-08 -3.52867e-10 -4.76646e-12
-5.9022e-09 5.36865e-09 -1.39564e-15
-7.2198e-10 2.03093e-09 -1.26617e-15
3.75553e-09 3.27393e-09 -3.02846e-15
-1.21047e-14 -4.27491e-08 -1.264e-08
-1.20207e-09 -1.75854e-09 3.02453e-15
5.48116e-10 4.8277e-09 -2.61474e-15
1.94391e-08 -2.16088e-13 -1.9956e-07
2.24264e-09 4.59764e-09 -4.04735e-15
2.90254e-10 1.62025e-09 -1.18618e-15
1.91426e-09 -3.81884e-10 2.58747e-15
1.26446e-09 2.5399e-09 1.10994e-14
1.05651e-08 -5.22245e-09 1.75716e-12
-6.06473e-09 -2.87852e-17 6.46377e-06
4.66267e-09 4.00243e-09 -2.78111e-15
-7.75628e-11 2.09199e-09 -1.00761e-15
1.99955e-09 1.86462e-09 -1.77177e-15
2.2531e-09 1.29829e-09 -2.97772e-15
-5.21141e-14 -7.38221e-09 -1.11692e-07
-1.10759e-10 -2.5997e-10 2.18493e-16
9.61508e-11 9.09673e-10 -9.69978e-16
1.03779e-09 2.62119e-09 -4.3088e-15
1.17419e-09 -1.22782e-09 2.68917e-15
4.68722e-09 -1.62635e-09 2.2423e-14
5.83465e-08 -4.29987e-08 5.05844e-12
-4.11806e-09 1.06099e-09 2.966e-15
2.0127e-11 1.80583e-09 5.38201e-16
-1.19312e-09 9.75561e-10 8.7036e-16