<?xml version="1.0"?>
<VTKFile type="UnstructuredGrid" version="0.1" byte_order="LittleEndian" compressor="vtkZLibDataCompressor">
 <UnstructuredGrid GhostLevel="0">
  <Piece NumberOfPoints="1105" NumberOfCells="1105">
   <PointData>
    <DataArray type="Float64" Name="Elongation" NumberOfComponents="3"/>
2.69506e-06 -3.47365e-07 9.21557e-09
1.93816e-06 -9.96409e-07 5.06022e-09
1.55875e-06 -5.22625e-08 3.62556e-09
6.25322e-07 -2.16708e-06 5.76844e-09
1.53098e-06 1.51413e-06 -1.18606e-09
-9.00546e-07 6.87458e-10 -1.07028e-05
4.9254e-07 -4.96242e-06 1.28134e-08
8.56293e-07 -2.35273e-06 7.50664e-09
1.3971e-06 -1.99816e-06 8.49855e-09
-2.07493e-06 -4.15415e-06 1.09036e-08
-1.02455e-05 -1.03422e-05 -2.892e-08
1.81104e-06 1.24846e-06 5.45703e-09
5.43238e-07 3.42847e-07 7.75942e-10
1.95312e-06 1.57701e-06 3.52401e-09
3.27935e-07 6.47255e-07 1.1544e-09
1.07575e-06 -1.73677e-07 1.4752e-09
-9.62377e-08 -2.62982e-07 1.04406e-11
4.60263e-07 -5.34353e-08 2.56935e-10
9.65086e-07 -1.40566e-06 3.8763e-09
2.13045e-07 -1.75009e-06 5.39332e-09
-6.76774e-06 -7.72983e-06 -8.16624e-09
3.4344e-11 -8.43701e-08 -3.46229e-07
1.19023e-06 6.24845e-07 3.56486e-09
3.03631e-06 -6.67436e-09 -1.25997e-06
1.27153e-07 -1.0341e-07 -1.19496e-10
-2.77636e-09 2.16463e-06 -7.10161e-06
-4.59838e-07 -2.49948e-07 -3.52044e-10
6.66813e-07 -8.12362e-08 6.92188e-10
-2.38942e-07 -7.0313e-07 2.37072e-10
5.24227e-07 -1.22981e-06 1.39456e-09
4.93983e-07 -6.82285e-07 9.51904e-10
1.16849e-07 -1.02261e-06 1.3473e-09
-5.59016e-07 -2.30838e-06 6.05128e-09
-5.0378e-06 -3.61972e-06 -2.65613e-08
-1.4843e-06 -1.98718e-10 -3.29056e-05
1.86927e-06 2.36656e-06 7.04875e-09
2.75814e-06 -7.1883e-09 -6.8982e-06
-3.24011e-07 3.15276e-08 2.32111e-10
4.9824e-07 2.53399e-07 4.23286e-10
7.40803e-07 -1.22939e-07 3.55787e-10
5.70949e-07 1.18694e-07 3.49814e-10
-2.14378e-06 1.15617e-09 -7.81735e-06
6.19505e-08 -3.30755e-07 1.00291e-10
1.20615e-07 -4.16869e-07 1.77223e-10
-1.78172e-07 -3.80513e-07 1.9927e-10
-9.27732e-07 1.39276e-07 -2.13012e-10
-4.20144e-06 -2.95619e-06 -1.60544e-08
8.72157e-07 1.78988e-07 1.94113e-09
-1.5333e-07 7.74132e-07 7.81667e-10
9.94123e-11 9.1404e-07 -1.1374e-05
1.90279e-07 4.15877e-07 3.45783e-10
-8.29063e-07 2.33688e-07 3.47322e-10
3.24532e-07 7.041e-08 1.24595e-10
-2.54897e-07 1.44766e-10 -3.6913e-08
-3.38598e-07 -3.10849e-07 3.632e-11
6.30805e-08 -3.71481e-07 1.47334e-10
-7.55521e-07 -3.13263e-07 6.00242e-10
-1.8917e-06 -1.08583e-06 2.78315e-09
-3.48389e-06 -1.17367e-06 -2.34987e-08
2.75025e-06 1.27151e-06 6.98718e-09
-4.83661e-07 1.40807e-06 2.17179e-09
2.40756e-07 8.1682e-07 8.28277e-10
-1.54331e-07 -2.97216e-07 3.8294e-11
3.33134e-07 -6.66504e-07 1.75216e-10
-1.42024e-08 8.29835e-08 -6.17167e-12
2.03297e-07 1.47901e-07 -3.97442e-11
-9.78705e-07 -5.56996e-07 9.95507e-10
-2.35356e-06 -1.25277e-06 6.34697e-09
-4.75378e-06 -3.23155e-06 -2.42166e-08
-1.6303e-06 1.84318e-10 3.47385e-05
1.08779e-10 -4.63354e-07 -3.09133e-05
2.38017e-07 1.01174e-06 7.30939e-10
-3.36206e-07 5.5236e-07 8.2095e-10
6.02278e-07 2.12775e-07 4.93024e-10
-8.29297e-07 7.69281e-07 1.05923e-09
-7.95991e-07 5.98224e-07 8.52086e-10
-2.36047e-08 -1.24125e-11 -5.46613e-06
-4.4622e-07 -1.7628e-07 2.04085e-12
-3.62185e-07 -4.55669e-07 1.04219e-10
-1.53513e-06 6.93872e-08 1.98444e-09
-3.12471e-07 -3.21061e-07 1.11599e-09
-3.86386e-06 -3.67257e-06 -2.88908e-09
-1.1859e-06 -1.45492e-11 -3.39673e-05
5.63456e-12 1.78018e-07 2.10729e-05
-4.41044e-07 2.90897e-07 7.18991e-10
-9.01575e-07 -1.11677e-07 1.02529e-09
-7.14396e-07 3.08041e-07 8.45039e-10
-2.63788e-07 -7.01624e-07 5.26602e-10
-4.59679e-07 -9.24398e-07 7.14416e-10
-3.19188e-07 -4.82996e-07 6.09769e-10
-2.19497e-07 -3.34093e-07 5.19595e-10
-5.29819e-08 2.62043e-11 -1.90927e-06
-1.44374e-06 1.30787e-07 1.53605e-09
-1.63225e-11 -4.5418e-08 1.33626e-07
-1.62621e-06 2.13648e-09 2.69305e-06
-4.29783e-06 -2.34241e-06 1.14147e-08
-4.3093e-06 -4.11231e-06 -7.59687e-11
-1.42545e-07 3.47775e-12 -1.0104e-05
-1.05897e-11 -6.74136e-08 2.87189e-05
-1.26341e-06 8.94006e-07 4.83081e-09
-3.43152e-07 1.38951e-07 5.32795e-10
-1.26799e-06 -1.14663e-06 1.11516e-09
-1.18683e-06 1.83557e-07 2.68388e-09
-1.52901e-06 -1.60239e-07 3.36458e-09
-2.00764e-06 -1.275e-06 4.14437e-09
-1.56578e-06 -1.20643e-06 4.83709e-09
1.02145e-06 -3.65806e-10 -7.45546e-06
-1.72314e-06 3.93989e-07 3.00019e-09
-1.15949e-07 3.0918e-11 4.69138e-06
-2.32542e-06 -3.90624e-06 1.15961e-08
-4.99765e-06 -5.44917e-06 1.028e-08
2.7698e-10 1.9249e-06 2.63242e-05
-3.32547e-06 -1.17544e-05 -1.11428e-07
-4.68459e-06 -9.85133e-06 -7.70022e-08
-3.9351e-06 -3.2872e-06 -3.86362e-09
6.19646e-06 2.65307e-09 3.775e-05
-4.03242e-06 -5.17999e-06 -2.54377e-08
-4.14761e-06 -3.79414e-06 -5.60477e-09
-5.51352e-06 -3.33061e-06 1.72394e-08
-5.55817e-06 -3.94677e-06 8.69042e-09
-5.59282e-06 -5.55175e-06 -1.69434e-11
-4.45042e-06 -4.68096e-06 8.68929e-09
-5.30386e-06 -6.29897e-06 -5.196e-09
1.64431e-10 8.84102e-07 -2.24782e-05
-1.53713e-08 1.80475e-12 4.10443e-05
-3.40264e-06 -1.35892e-06 -2.01959e-08
-2.41327e-06 -2.90553e-07 -8.36992e-09
-1.29149e-06 -1.04075e-06 -4.09396e-09
-1.56026e-06 1.91496e-07 -4.25152e-09
-1.83563e-06 8.36224e-07 -5.13907e-09
-7.94631e-07 1.58757e-07 -1.77693e-09
1.72179e-06 -1.72161e-09 9.82374e-06
-2.23084e-06 1.01546e-06 -9.00326e-09
-2.6102e-06 7.72991e-07 -1.20507e-08
-1.47341e-06 6.01905e-07 -1.10441e-08
1.10999e-06 7.32104e-06 -2.3101e-08
-1.94553e-06 -1.38809e-06 -8.42496e-09
-1.47404e-06 -2.87851e-07 -3.20902e-09
1.62848e-06 -4.84269e-09 -6.85002e-07
-9.45958e-07 -1.43208e-06 -3.89494e-09
-1.89255e-06 -1.27199e-06 -6.25713e-09
-7.68988e-07 -1.30009e-06 -3.44077e-09
-2.7515e-07 -1.12927e-06 -2.57731e-09
-9.57311e-07 -1.11297e-06 -2.99281e-09
6.15089e-08 7.23648e-07 -5.34073e-10
-3.44788e-06 1.3284e-06 -2.35886e-08
-1.50072e-07 3.77328e-06 -1.66914e-08
-1.98861e-06 -1.42086e-06 -9.68763e-09
-6.39092e-07 -5.8904e-07 -1.29602e-09
-7.90817e-07 -3.09826e-07 -1.12361e-09
-1.00931e-06 -2.03672e-07 -1.33195e-09
-5.37439e-07 -2.60172e-07 -1.04356e-09
-4.55308e-07 9.31265e-07 -1.15908e-09
-9.38087e-07 9.05847e-07 -2.49776e-09
-3.97541e-08 1.33516e-06 -2.46464e-09
-2.36379e-06 1.29035e-06 -1.35391e-08
-2.28259e-06 2.78317e-06 -5.71548e-08
6.94719e-08 -1.70493e-11 -2.72969e-05
-2.09305e-06 -1.16324e-06 -8.49173e-09
-1.59846e-07 -1.9311e-06 -3.68783e-09
3.37764e-07 -1.29227e-06 -2.24794e-09
-7.91301e-07 -9.02379e-07 -1.76934e-09
-8.916e-07 -5.8729e-07 -1.66806e-09
-5.93428e-07 -4.25642e-07 -9.21342e-10
-4.38672e-07 -2.68904e-07 -5.24876e-10
2.52394e-07 -2.88478e-07 -1.50843e-10
-8.45922e-09 -4.62203e-08 3.15142e-11
-2.70709e-06 3.80959e-06 -7.93209e-08
-2.28095e-07 5.49179e-12 -1.01633e-05
-5.91786e-07 -1.48443e-06 -4.5898e-09
-4.28596e-07 -1.10975e-06 -1.80201e-09
2.31453e-08 -8.32787e-07 -1.12362e-09
3.71225e-07 -4.63138e-07 -5.91134e-10
-1.11435e-06 -3.20248e-07 -1.96357e-09
-7.09036e-07 -5.68725e-07 -1.27082e-09
-3.09846e-07 -3.05091e-07 -4.47118e-10
1.20209e-06 -8.72498e-08 -1.65843e-09
3.20927e-07 -2.24446e-07 2.32362e-10
-3.03735e-06 -7.49869e-07 -5.51544e-08
-1.52244e-06 -9.91479e-07 -3.36071e-09
-1.05476e-07 -1.55172e-06 -3.80499e-09
3.98361e-07 -1.36496e-06 -2.47499e-09
-4.56254e-07 -7.45053e-07 -1.36991e-09
-8.18492e-08 -5.1476e-07 -7.77498e-10
-5.7701e-07 -7.76736e-08 -4.37343e-10
6.57924e-07 -6.79359e-07 -8.63126e-10
1.81749e-06 4.4315e-07 -4.01075e-09
7.68439e-07 8.46953e-07 -9.6731e-10
-2.2095e-06 1.20892e-06 -4.16241e-08
-8.83387e-07 -1.58363e-06 -3.63432e-09
-2.58164e-07 -4.07001e-07 -4.29334e-10
1.16765e-06 -1.48584e-07 -1.35362e-09
1.03044e-06 -2.56292e-07 -9.5255e-10
-5.31424e-07 3.35977e-07 -3.05618e-10
1.97049e-07 -2.10252e-07 -3.1269e-11
9.1902e-07 3.30283e-07 -1.29505e-09
1.75213e-06 9.29088e-07 -4.44921e-09
1.90121e-06 1.10956e-06 -5.33054e-09
-3.06659e-06 5.85829e-06 -1.18433e-07
-1.35379e-06 -9.98699e-07 -3.8835e-09
-7.07457e-07 -6.63935e-07 -1.40194e-09
1.12354e-06 -9.54448e-07 -3.24279e-09
5.96441e-07 -4.6658e-07 -1.48499e-09
9.23915e-08 4.78194e-07 -5.63439e-11
2.28019e-07 2.91513e-07 -3.45853e-10
1.49467e-06 6.81197e-07 -3.92838e-09
1.68555e-06 8.92069e-07 -4.31151e-09
1.65356e-06 1.16917e-06 -5.94388e-09
-3.36932e-06 4.36709e-06 -9.04425e-08
5.20813e-12 -1.73882e-08 3.89279e-05
-1.62875e-06 -2.34496e-06 -1.53453e-08
-4.76227e-07 -2.76654e-06 -1.66737e-08
3.20528e-08 7.17622e-06 9.09178e-06
-1.11033e-07 -2.22564e-06 -1.17426e-08
1.633e-06 -2.46787e-06 -1.47948e-08
1.75316e-06 -2.35897e-06 -1.25223e-08
8.50834e-07 -9.21567e-07 -4.96922e-09
1.8955e-06 -7.10518e-07 -6.14261e-09
2.40214e-06 -6.10413e-07 -8.88648e-09
2.21859e-06 3.7241e-07 -6.43997e-09
-1.77861e-06 6.6062e-06 -8.94454e-08
2.64509e-06 1.45136e-06 2.38378e-08
4.05088e-06 7.57116e-08 -1.61084e-08
4.81573e-06 -2.39569e-06 -8.8765e-08
4.95696e-06 -3.96872e-06 -1.15099e-07
-1.0789e-06 -2.72426e-06 -5.06542e-08
5.76281e-06 -4.0874e-06 -1.22267e-07
6.08882e-06 -3.51157e-06 -1.14223e-07
7.00397e-06 -2.01322e-06 -1.03145e-07
-4.43382e-06 2.34441e-09 -4.25953e-05
6.67721e-06 -1.71246e-06 -1.05045e-07
2.7686e-06 3.3965e-06 3.02071e-08
-4.08349e-09 -3.92844e-06 -2.26098e-05
-6.6034e-07 -9.03906e-11 3.98879e-05
4.10818e-07 2.70928e-06 1.58113e-08
4.09683e-07 1.9219e-06 8.50849e-09
-2.90824e-07 1.93443e-06 8.04775e-09
1.26871e-06 2.87272e-06 1.29564e-08
6.88967e-07 1.30344e-06 6.44607e-09
3.02556e-07 -2.04815e-10 -4.62445e-07
-9.63403e-08 2.68873e-06 1.10749e-08
1.50935e-06 1.33184e-06 8.11336e-09
1.68601e-06 8.67374e-07 7.36469e-09
1.7582e-06 2.10577e-06 1.42297e-08
4.50769e-06 -3.43878e-06 2.24563e-07
-4.80995e-11 4.18655e-07 3.17047e-05
5.0651e-07 1.83069e-07 5.50681e-10
1.5969e-06 -3.18478e-07 4.65756e-09
8.89314e-07 -7.13203e-07 2.61975e-09
1.02283e-06 -5.08181e-07 2.68636e-09
7.7339e-07 -2.67489e-07 1.16207e-09
5.20104e-06 -4.90548e-09 1.29236e-05
5.50815e-07 -6.15225e-07 8.84441e-10
1.35052e-06 -2.96125e-07 3.50303e-09
4.26066e-07 2.90137e-08 6.56219e-10
2.47855e-06 -6.68725e-08 1.53056e-08
3.13737e-06 3.42892e-07 1.11038e-07
-6.16976e-07 2.20646e-06 9.16662e-09
1.40456e-06 5.09569e-07 3.92357e-09
4.92213e-08 1.54473e-06 4.08557e-09
1.02181e-06 1.11902e-06 3.68494e-09
4.91068e-08 1.47239e-06 2.81211e-09
-1.86744e-07 8.6896e-07 1.6281e-09
-1.09839e-08 2.05636e-07 8.45642e-11
1.433e-06 -6.32831e-07 4.70465e-09
1.63076e-06 8.75577e-08 7.26352e-09
4.11102e-06 -4.187e-06 1.38471e-07
-9.65873e-11 5.54213e-07 -3.9013e-05
-1.00793e-06 1.11038e-06 4.79944e-09
1.11469e-06 6.27074e-07 2.45936e-09
-6.49927e-08 7.87501e-07 9.53194e-10
7.08162e-07 1.02053e-06 2.47861e-09
-3.03154e-07 7.00371e-07 1.1219e-09
2.13379e-07 -2.80265e-07 2.79165e-10
-1.21249e-07 -2.23342e-07 9.90619e-11
1.01281e-06 -4.08028e-07 2.43407e-09
1.16551e-06 3.55933e-07 4.07774e-09
3.37958e-06 3.64759e-07 7.631e-08
-1.52089e-06 1.46283e-06 6.6824e-09
8.2827e-07 4.22799e-07 1.4522e-09
-8.56578e-08 5.80314e-07 6.08767e-10
1.04298e-06 -3.96658e-07 1.47433e-09
-2.13216e-07 2.17361e-08 1.26871e-10
4.16486e-07 -6.6287e-08 3.33504e-10
-7.14157e-07 -5.87864e-08 7.42015e-10
5.00447e-07 9.93611e-08 6.90706e-10
1.09562e-06 7.01833e-07 3.24233e-09
4.44402e-06 -2.73774e-07 1.02109e-07
2.82536e-10 -1.18803e-06 -3.48221e-05
7.21772e-07 -7.3308e-11 -2.99937e-05
-1.18205e-06 4.22414e-08 3.08916e-09
1.06478e-06 -3.15626e-07 1.70665e-09
-5.78202e-08 6.33537e-07 6.03564e-10
7.2439e-07 6.54971e-07 1.54538e-09
-8.46324e-07 1.17701e-06 3.05545e-09
4.8333e-07 -1.13752e-07 4.20288e-10
-5.69401e-07 4.35746e-07 6.72867e-10
-2.70859e-07 -1.20879e-06 2.63142e-09
1.15868e-06 -5.86699e-07 4.99907e-09
3.41774e-06 -1.80773e-06 8.26796e-08
1.4337e-09 -1.1033e-06 5.43641e-05
-5.08152e-07 9.17497e-07 2.23022e-09
5.89773e-07 4.66573e-07 1.14949e-09
-2.48137e-07 2.41895e-07 3.01344e-10
-3.07886e-07 2.06741e-07 2.54811e-10
4.64361e-07 6.80433e-08 2.53495e-10
-1.72598e-07 -2.99097e-07 2.70688e-10
-2.64424e-07 -6.99506e-07 7.57634e-10
5.90379e-06 -1.49012e-08 1.17072e-05
-1.68504e-07 -1.63001e-06 4.50655e-09
1.47029e-06 -1.42241e-06 7.54296e-09
4.31855e-06 -2.25566e-06 1.12902e-07
-8.13975e-08 -8.13558e-12 -1.58706e-06
9.74518e-08 1.33601e-06 3.83957e-09
1.02941e-06 8.85202e-07 2.85333e-09
-4.80349e-08 1.49557e-06 4.1844e-09
-4.34732e-07 1.8064e-06 6.07202e-09
1.934e-07 9.03431e-07 1.92968e-09
-1.38488e-07 1.17192e-06 2.2254e-09
-1.07279e-06 7.08517e-07 2.84716e-09
7.70377e-07 -1.64119e-09 -1.18727e-05
-7.44554e-07 8.86147e-07 2.61891e-09
8.83892e-07 -1.219e-06 5.26968e-09
5.13165e-06 -4.21555e-06 1.49121e-07
-2.91932e-10 1.3439e-06 -2.99538e-05
-2.91317e-07 2.97112e-11 3.60348e-05
2.7189e-07 1.79489e-06 1.00589e-08
-1.10616e-06 1.77381e-06 1.18374e-08
1.10134e-06 2.11701e-06 1.02618e-08
-7.6615e-07 1.97385e-06 9.31141e-09
-1.99512e-07 1.25989e-06 4.01513e-09
8.70239e-07 5.83787e-07 2.09434e-09
-3.77832e-07 1.36533e-06 5.05467e-09
-5.67983e-07 1.64515e-06 6.77289e-09
1.08633e-06 -1.20406e-06 5.68981e-09
3.6267e-06 -4.72511e-06 1.13756e-07
9.6661e-10 2.04472e-06 2.31566e-05
-9.84867e-07 4.43324e-10 -3.5215e-05
-1.70421e-06 4.71298e-06 2.23839e-07
-3.73668e-06 4.05831e-06 1.69542e-07
-4.57852e-07 3.71513e-06 9.77969e-08
-3.5305e-06 5.34491e-06 1.5845e-07
-1.71129e-07 4.13899e-06 9.52757e-08
-3.12913e-06 5.78117e-06 1.50582e-07
-4.43729e-06 3.6866e-06 1.16875e-07
-3.98054e-06 4.27255e-06 1.22148e-07
-2.07922e-06 3.51127e-06 8.42812e-08
-8.43458e-07 -3.68514e-07 -1.28764e-08
2.83557e-10 1.19367e-07 1.95595e-05
-6.04916e-07 -1.62639e-11 5.5857e-07
7.94306e-07 -1.05252e-06 -4.91692e-09
2.98723e-07 -4.65473e-07 -1.0102e-09
9.92426e-08 -2.83261e-07 -3.57251e-10
-6.87517e-07 -4.3597e-07 -8.34643e-10
-1.46488e-07 -4.43395e-07 -6.93603e-10
3.91334e-07 -7.92951e-07 -6.00669e-10
1.45665e-08 1.85244e-07 3.34235e-11
-6.76241e-07 1.09926e-07 -1.40618e-09
-7.59758e-07 -5.17543e-07 -2.62856e-09
-7.28034e-06 3.79352e-07 -4.40595e-07
-1.91826e-10 9.45066e-07 -3.54818e-05
6.70909e-07 -7.59073e-07 -2.82176e-09
5.24134e-08 -2.83889e-07 -1.74732e-10
1.90178e-07 3.23167e-07 4.65648e-11
-4.03215e-09 4.03178e-07 -4.5685e-10
-5.84444e-07 8.31774e-07 -2.16777e-09
-5.60644e-07 1.69861e-06 -4.29725e-09
-6.21917e-07 1.04386e-06 -3.48996e-09
-1.28504e-06 3.61852e-07 -4.55478e-09
-2.15759e-07 2.97954e-08 -7.50263e-10
-5.21924e-06 -6.40757e-07 -2.38898e-07
2.86819e-08 -3.94225e-07 -4.35105e-10
1.25451e-07 -7.49315e-07 -1.51425e-09
-1.31893e-07 -4.53366e-07 -4.8428e-10
-1.58224e-07 -2.95312e-07 -4.41311e-10
-6.41707e-08 -2.23417e-07 -1.59357e-10
-8.87063e-08 -1.22686e-07 -1.64656e-10
1.08331e-07 1.85978e-07 -6.80159e-11
-1.17217e-06 3.36476e-07 -3.82127e-09
-5.2677e-07 2.5813e-07 -1.59672e-09
-4.07655e-06 2.37415e-06 -1.35195e-07
3.82559e-07 1.68524e-07 -1.22466e-10
9.7541e-08 -4.37042e-07 -2.53593e-10
-4.30228e-07 2.00431e-07 -6.08871e-10
-1.80501e-07 2.3872e-07 -1.60409e-10
2.32318e-07 -2.00715e-10 -7.0905e-11
-2.13903e-07 1.67893e-07 -2.14155e-10
-1.49189e-07 1.67323e-07 -1.94897e-10
-9.13024e-07 4.97677e-07 -2.59646e-09
-1.86042e-06 -1.92998e-07 -1.00737e-08
-3.05132e-06 -2.46599e-06 -8.48958e-08
1.35547e-07 -4.00901e-07 -1.51962e-10
1.42418e-07 -5.10148e-08 -4.54013e-11
-7.33188e-07 -6.61719e-08 -1.14621e-09
-3.66103e-07 2.49179e-07 -1.13317e-10
4.47655e-07 1.88438e-07 -4.28635e-10
4.15168e-07 8.25952e-08 -2.95265e-10
4.26815e-07 2.25139e-07 -3.59536e-10
-1.06742e-06 7.15762e-08 -2.92992e-09
-1.32886e-06 -1.12494e-08 -4.88632e-09
-3.48178e-06 2.05491e-06 -9.93511e-08
6.30317e-07 -5.22037e-08 -8.87804e-10
4.37037e-08 4.10042e-08 5.29664e-14
-6.80309e-07 -2.18302e-07 -1.15095e-09
-3.77776e-07 -1.49755e-07 -3.27939e-10
3.26676e-07 1.37876e-07 -2.87302e-10
4.48678e-07 4.38434e-08 -3.70048e-10
-1.65447e-07 2.82093e-07 -7.41779e-11
-6.91466e-07 2.13426e-08 -1.31652e-09
-4.45236e-07 5.06618e-07 -2.04698e-09
-3.97189e-06 1.85194e-06 -1.07303e-07
5.08036e-07 1.70622e-08 -6.60448e-10
3.07455e-07 -9.00549e-07 -1.88643e-09
-1.04572e-06 -4.6566e-07 -1.98526e-09
-4.70925e-07 -4.49726e-07 -8.68075e-10
7.13517e-07 -3.12173e-07 -1.28848e-09
3.26167e-07 -7.85271e-08 -2.23887e-10
-2.35849e-07 1.86733e-08 -7.23377e-11
-5.39261e-07 1.87859e-07 -9.75506e-10
-1.27521e-06 1.05259e-06 -5.81335e-09
-3.55897e-06 -1.89119e-06 -9.16709e-08
-6.41676e-07 -8.56075e-11 3.35757e-05
8.49957e-07 -4.3464e-07 -2.46348e-09
3.62561e-07 -3.62985e-07 -1.11115e-09
-1.15746e-07 -5.23454e-07 -9.13833e-10
-2.93241e-07 -1.33062e-06 -3.65531e-09
1.52479e-07 -4.69663e-07 -1.16458e-09
6.65665e-08 -8.38723e-07 -1.89446e-09
-1.48902e-07 -6.83478e-07 -1.46099e-09
-3.73534e-07 -5.33167e-07 -1.17445e-09
-1.27031e-06 3.29871e-07 -4.78063e-09
-4.59796e-06 1.47909e-06 -1.2279e-07
1.42155e-06 -9.54643e-07 -9.95517e-09
9.92932e-07 -2.85929e-07 -3.42552e-09
-4.02238e-08 -6.75995e-07 -1.18891e-09
-5.07788e-07 -1.06115e-07 -9.29421e-10
5.05012e-08 7.97364e-07 2.17573e-10
1.93979e-07 4.79999e-07 -3.31433e-10
-1.41403e-07 1.1277e-06 -1.01477e-09
-2.91946e-07 9.70984e-07 -8.6423e-10
-1.34657e-06 1.12698e-06 -7.59176e-09
-3.59328e-06 5.5765e-07 -8.9084e-08
6.29164e-11 -4.65975e-07 -2.39171e-05
5.10872e-07 -7.26343e-06 -4.36577e-07
1.11893e-06 -5.43406e-06 -2.50407e-07
-2.1332e-06 -3.48342e-06 -1.09576e-07
1.40173e-07 -4.82984e-06 -1.39833e-07
1.36492e-06 -3.96629e-06 -1.06616e-07
-8.35273e-07 -5.16193e-06 -1.33543e-07
3.44003e-08 -3.13291e-06 -8.07798e-08
-2.35359e-06 5.72597e-09 -5.71286e-05
-2.73343e-07 -3.09065e-06 -7.48099e-08
-4.98201e-07 -3.88317e-06 -9.45043e-08
-1.9244e-06 -2.12868e-06 -8.02521e-08
-4.06283e-12 2.67831e-07 -9.17261e-06
-4.39954e-07 -4.80412e-12 -4.08224e-05
-3.38672e-07 -5.66492e-07 2.8901e-10
-9.48656e-08 -5.24582e-07 3.81e-10
2.04544e-07 -4.23074e-07 3.98613e-10
1.1869e-07 -5.76224e-07 4.7979e-10
-1.41657e-07 -5.41813e-07 4.32315e-10
-1.55767e-07 -2.03431e-07 2.19731e-10
-3.00928e-07 -6.32244e-07 7.36881e-10
-6.33223e-07 -5.32114e-07 7.84266e-10
6.33351e-07 -2.14446e-07 2.56746e-09
5.16784e-06 1.62837e-06 3.45696e-07
2.62191e-11 -4.06848e-07 1.93158e-05
-4.72441e-07 3.38504e-07 1.1802e-09
-7.08309e-07 4.99901e-07 1.62398e-09
-6.61832e-07 3.71739e-07 1.49106e-09
-4.90718e-07 5.75694e-07 9.57962e-10
-4.06394e-07 5.4838e-07 1.09571e-09
1.43503e-07 2.21904e-07 2.83317e-10
-2.20891e-07 5.22635e-07 4.07067e-10
-5.34041e-07 -1.43796e-07 2.84486e-10
-5.58418e-07 6.05853e-09 -1.29696e-09
4.70991e-06 -3.69323e-07 2.43311e-07
3.7122e-07 -5.37339e-07 4.37017e-10
-7.86407e-07 2.45655e-07 1.71815e-09
1.1263e-07 -6.90828e-07 9.50106e-10
-7.50004e-07 -5.60376e-07 1.24767e-09
1.83742e-07 -7.3507e-07 1.01901e-09
1.75637e-07 -5.61616e-07 1.13324e-09
4.94794e-07 -3.28826e-07 1.05849e-09
-7.23379e-07 9.12219e-10 4.70835e-10
6.17374e-07 -1.0403e-07 2.19212e-09
2.66102e-06 1.09557e-06 8.69131e-08
1.85752e-12 5.92969e-07 -3.86831e-05
1.28989e-07 -6.89843e-07 7.49908e-10
4.88898e-09 -2.72552e-06 -5.13152e-06
-4.18161e-07 1.94629e-07 5.75543e-10
-9.02959e-08 -7.05586e-08 -1.47796e-11
-3.15152e-07 -3.88496e-07 3.15517e-10
5.18521e-07 -2.69325e-07 8.68398e-10
2.98936e-07 6.02503e-07 1.2864e-09
6.8561e-07 3.94777e-07 1.3485e-09
-3.7337e-07 3.68498e-07 3.84753e-10
5.63172e-07 2.23738e-09 1.81219e-09
2.84018e-06 9.03504e-07 7.95816e-08
-1.46757e-11 -6.21632e-07 5.89243e-06
5.07939e-07 3.01601e-08 3.17265e-10
-3.14163e-07 1.11994e-07 2.94454e-10
-9.38402e-08 -6.02233e-08 9.96645e-12
-4.10397e-07 3.56883e-07 6.03021e-10
5.50848e-07 2.13159e-07 8.43146e-10
-6.23808e-08 2.9934e-07 3.04785e-10
5.50892e-07 3.57873e-07 1.26687e-09
-2.34661e-08 9.99682e-08 2.50779e-11
5.75068e-07 2.44618e-07 1.63057e-09
2.61966e-06 -8.63533e-08 7.07513e-08
-3.48475e-08 -1.57533e-07 -5.55713e-11
-5.21548e-07 7.66438e-07 1.45307e-09
-2.3382e-07 6.18476e-08 2.1621e-10
-1.90112e-07 3.39455e-07 4.09718e-10
6.31901e-07 -5.23316e-07 1.39221e-09
-1.85477e-07 4.77489e-07 7.3873e-10
7.74529e-07 -5.36918e-07 1.46333e-09
2.79153e-07 8.83472e-07 1.68476e-09
3.32561e-07 7.75864e-07 1.83933e-09
2.86971e-06 3.34315e-07 7.66576e-08
1.45476e-06 7.63216e-11 -3.48091e-05
1.41571e-07 -2.31977e-07 -2.84093e-11
1.87866e-08 -4.99939e-08 -7.08497e-12
-3.00066e-07 -1.73497e-07 2.32937e-10
4.24751e-07 -3.3505e-07 3.53702e-10
-2.05819e-07 -1.58956e-07 -1.94588e-11
2.24373e-07 2.6474e-07 4.15449e-10
1.20884e-07 4.66514e-07 5.24101e-10
2.34149e-08 1.01287e-06 2.13678e-09
-5.88953e-08 1.1122e-07 -5.64804e-11
2.67681e-06 2.14071e-06 7.70717e-08
-2.02444e-11 4.39738e-07 -3.27261e-05
2.0411e-07 -1.8069e-07 -1.15307e-11
1.20125e-07 -5.20548e-08 -1.826e-11
-4.03852e-07 -1.13173e-07 3.07924e-10
3.48564e-07 1.5022e-07 6.57629e-10
-7.04371e-08 -4.09056e-07 1.52545e-10
6.25583e-08 -2.38676e-07 4.16465e-11
2.46835e-07 -2.38328e-07 1.63128e-10
4.9281e-07 -6.5783e-07 1.49421e-09
3.48235e-07 3.80951e-07 6.54352e-10
2.97672e-06 1.59221e-06 8.46037e-08
-3.68079e-07 7.27835e-08 7.1437e-10
7.82632e-07 4.18039e-07 2.69074e-09
-2.87423e-07 4.70024e-07 1.02988e-09
4.79894e-07 -2.07241e-07 5.58259e-10
1.02702e-07 -3.99656e-07 -3.77637e-10
-4.10444e-07 8.73005e-08 2.55089e-10
-1.46774e-08 -5.87585e-07 5.28894e-11
7.9269e-08 -1.23903e-06 1.99722e-09
-1.16696e-07 6.21721e-07 6.83816e-10
2.67925e-06 1.76729e-06 7.82237e-08
-1.26294e-11 -3.27735e-07 2.29721e-05
-9.33602e-07 3.46304e-10 2.56591e-06
1.28342e-06 5.02992e-06 3.31758e-07
1.52859e-06 4.10722e-06 2.11563e-07
1.23677e-06 3.40023e-06 1.1572e-07
1.60692e-06 2.74368e-06 8.45141e-08
7.897e-07 2.85261e-06 7.91721e-08
1.68272e-06 2.14795e-06 6.32762e-08
1.74578e-06 3.08095e-06 8.63387e-08
1.42098e-06 2.36394e-06 6.61251e-08
1.62389e-06 3.27325e-06 9.03104e-08
3.03257e-06 3.06672e-06 1.71172e-07
-2.61387e-07 -1.0109e-06 1.72106e-09
-3.87524e-07 -3.50807e-07 4.92447e-10
-2.24014e-07 -3.0866e-07 4.44384e-10
-4.17085e-07 -2.01167e-07 3.63335e-10
-4.99335e-07 -6.72024e-08 5.1668e-10
-1.81611e-07 1.70209e-07 2.23072e-10
-5.51315e-07 9.40327e-08 3.47929e-10
-1.17117e-06 -3.39957e-07 3.01252e-09
4.32638e-08 2.94748e-07 5.24537e-10
2.24885e-06 2.35432e-06 1.71465e-07
-9.55796e-08 -7.78268e-07 1.0754e-09
-3.47406e-07 -1.04824e-07 2.3861e-10
-3.21133e-07 -1.35859e-07 2.61519e-10
-6.84347e-07 8.89023e-09 5.78246e-10
-4.27594e-07 1.89389e-07 5.33536e-10
-2.17936e-07 3.92067e-07 5.21884e-10
-4.99304e-07 3.8337e-07 5.65148e-10
-7.43406e-07 2.61996e-07 1.0726e-09
-9.86907e-07 3.04256e-07 -5.53706e-10
2.92349e-06 4.54391e-07 1.58316e-07
-2.57147e-07 -5.6347e-07 6.48909e-10
-3.16093e-08 -5.12521e-07 4.96477e-10
-1.40738e-07 -2.75089e-07 1.75219e-10
-2.96027e-07 -4.13452e-07 3.31497e-10
-3.53664e-07 -4.73828e-07 5.55694e-10
-2.26836e-07 3.30735e-07 2.37818e-10
-6.8698e-08 3.85898e-07 4.48505e-10
-6.88892e-07 3.424e-07 8.66964e-10
-7.17046e-07 -1.1959e-08 -2.35714e-11
1.31141e-06 1.79364e-06 5.15349e-08
1.90547e-07 2.89562e-11 -1.98261e-05
-3.42544e-07 -4.75546e-07 7.13522e-10
5.56241e-09 -5.05194e-07 4.25326e-10
-1.3083e-07 -3.01731e-07 1.88852e-10
-4.18909e-07 -1.77928e-07 2.79156e-10
-4.96579e-08 -1.50345e-07 8.30738e-11
-1.93881e-07 -2.77577e-11 5.99994e-11
-5.34381e-08 -1.80321e-08 -1.26175e-11
-2.69314e-07 7.25542e-08 4.32728e-11
-7.58984e-07 -4.94066e-08 2.45764e-10
1.50994e-06 7.17012e-07 4.19183e-08
3.48559e-08 -2.99127e-07 8.88368e-11
-3.93868e-08 -2.08604e-07 3.03828e-11
-4.44681e-07 -1.76152e-07 6.16441e-10
2.14488e-08 -5.99138e-09 3.5619e-12
8.24506e-08 -5.45112e-08 5.39901e-11
1.37505e-07 -1.57902e-07 1.43961e-10
2.13579e-07 -4.9479e-08 2.10806e-10
-3.01948e-07 -1.33347e-07 5.77612e-11
-5.0826e-07 1.30954e-07 -9.37031e-11
1.29745e-06 9.1111e-07 3.61112e-08
1.74254e-07 -1.66899e-11 -3.98327e-05
-1.44305e-07 -3.11166e-07 2.59172e-10
-8.48639e-08 -1.24287e-07 2.31738e-11
-3.62143e-07 -4.34452e-07 7.02215e-10
-3.93081e-07 -3.10911e-07 4.33931e-10
1.53055e-07 -1.22961e-07 7.14478e-11
-1.32035e-07 -5.5413e-08 -7.33901e-11
4.92665e-07 -4.93132e-07 8.75364e-10
2.1588e-07 2.66524e-07 1.84719e-10
1.03134e-07 8.32964e-07 1.51985e-09
1.23301e-06 1.20621e-06 3.61761e-08
1.03942e-07 -5.12869e-07 3.78313e-10
1.1436e-07 -4.40564e-07 4.08864e-10
-4.04864e-07 -3.49408e-07 6.36844e-10
-2.54485e-08 -3.56263e-07 4.18546e-10
-2.02933e-07 -1.72997e-07 9.94816e-11
3.17128e-07 -1.59976e-07 2.67587e-10
1.15743e-07 1.09762e-07 1.14391e-10
2.17191e-08 5.66429e-07 7.97062e-10
-3.45184e-07 7.31138e-07 4.7255e-10
1.25019e-06 1.95882e-06 4.01663e-08
1.75666e-10 2.26981e-06 3.09592e-05
-3.08532e-07 -4.76788e-11 -3.39567e-05
1.02488e-07 -3.16542e-07 -2.14075e-11
7.46423e-08 -1.66529e-07 6.1946e-11
2.85947e-08 -4.29855e-07 -3.88672e-11
-3.69473e-07 -7.20196e-07 9.13957e-10
8.55255e-09 -2.39033e-07 2.11418e-10
-6.4969e-08 -5.22929e-07 4.8642e-10
2.95587e-07 -3.97625e-07 4.05005e-10
3.41526e-07 -4.37988e-07 8.0924e-10
-8.11896e-08 1.0294e-06 2.20022e-09
1.13663e-06 2.38602e-06 4.55404e-08
8.02441e-07 -4.63151e-12 4.20359e-06
3.36211e-07 -5.54492e-07 -7.97008e-10
5.44126e-07 -2.85522e-07 -4.37398e-11
4.68076e-08 -1.3422e-07 -1.20689e-10
-2.60081e-07 -6.15269e-07 -1.12888e-10
4.48018e-07 -6.2581e-08 1.28588e-10
3.68532e-07 1.9441e-07 8.41318e-10
3.65969e-07 2.76281e-07 1.04664e-09
4.81702e-07 -2.39131e-08 6.40227e-10
3.07788e-08 1.12861e-06 3.62226e-09
1.51163e-06 2.34578e-06 5.74612e-08
-2.63264e-11 7.68109e-08 1.0976e-05
2.07344e-06 2.20019e-06 1.63495e-07
1.71876e-06 2.56121e-06 1.4432e-07
1.02719e-06 2.17307e-06 7.66729e-08
1.68193e-06 5.4151e-07 2.34514e-08
1.3678e-06 1.24174e-06 3.87972e-08
1.61542e-06 5.89822e-07 2.31584e-08
1.78821e-06 1.36921e-06 4.26625e-08
1.65683e-06 1.20792e-06 3.9546e-08
2.91242e-06 1.85191e-06 7.03391e-08
2.4547e-06 2.45222e-06 1.61576e-07
9.87699e-10 1.59092e-06 7.63931e-06
4.4069e-07 1.02591e-06 -3.2083e-09
5.0218e-07 4.50136e-07 -1.15925e-09
3.2422e-07 4.41905e-07 -9.7464e-10
5.65018e-07 2.9783e-07 -8.6205e-10
5.16502e-07 1.63044e-07 -7.59715e-10
1.69174e-07 3.17661e-08 -2.23121e-10
8.03631e-07 -9.52304e-08 -1.53891e-09
6.88386e-07 -7.65128e-08 -1.03705e-09
5.89706e-07 -2.13885e-07 -1.87354e-10
-1.04759e-07 -1.59104e-06 -2.33002e-08
2.17269e-07 7.50618e-07 -1.57439e-09
3.4594e-07 2.91983e-07 -6.95515e-10
3.07591e-07 3.76847e-07 -6.21583e-10
5.1034e-07 3.07947e-07 -9.33336e-10
3.40743e-07 2.12794e-07 -4.11828e-10
2.02055e-07 -4.96581e-08 -1.65504e-10
6.20285e-07 1.34777e-07 -7.85304e-10
2.11526e-07 -3.59412e-07 -2.35391e-10
6.87989e-07 -4.25237e-07 -2.81481e-10
-1.0698e-06 -1.09887e-06 -6.38194e-08
2.42983e-07 6.83763e-07 -1.33078e-09
7.65166e-08 5.64973e-07 -9.25195e-10
1.10467e-07 1.15828e-07 -6.09418e-11
1.39587e-07 1.18417e-07 -3.13697e-11
1.98676e-07 1.82199e-07 -2.59535e-10
2.44571e-07 -3.5674e-07 -5.32475e-10
4.14546e-07 -3.17185e-07 -7.29036e-10
3.67919e-07 -4.63013e-07 -7.31742e-10
1.00562e-06 -1.06763e-07 -1.73515e-09
-3.59856e-07 -1.47511e-06 -2.06102e-08
2.73729e-07 4.90322e-07 -9.26746e-10
1.37028e-07 5.40166e-07 -6.96983e-10
-3.11853e-08 4.99655e-07 -6.71121e-10
3.03643e-07 3.42052e-07 -4.61286e-10
2.62344e-07 5.58775e-08 -3.06415e-10
2.35091e-07 1.9914e-07 -2.52991e-10
4.30936e-07 1.01631e-07 -3.22579e-10
3.9507e-08 8.69347e-08 -3.16072e-11
6.13486e-07 3.13625e-08 -2.36099e-10
-1.35072e-07 -1.1692e-06 -7.75859e-09
-9.5141e-08 5.81365e-07 -6.88645e-10
1.15213e-07 3.9054e-07 -4.51321e-10
-2.04278e-08 3.41481e-07 -2.78683e-10
-3.6603e-08 1.51659e-07 -9.71983e-11
2.48595e-07 1.67362e-07 -3.76603e-10
2.82339e-09 1.56211e-07 -1.22288e-10
1.55591e-08 1.70603e-07 -5.07769e-11
2.42761e-08 6.36061e-08 -1.72737e-11
4.19364e-07 2.09812e-07 7.69441e-11
-6.11421e-08 -6.57337e-07 -2.81718e-09
-5.89559e-12 -4.34904e-07 -1.86861e-05
2.19104e-07 -9.59226e-12 2.3498e-05
1.67838e-07 3.93982e-07 -7.10076e-10
8.34869e-09 6.86201e-07 -1.17191e-09
-1.35847e-07 5.62554e-07 -6.60179e-10
2.43936e-07 6.13563e-07 -1.14027e-09
6.29878e-08 1.63478e-07 -1.95584e-10
2.49324e-07 3.39545e-07 -4.58497e-10
1.1077e-07 9.16607e-08 -4.65074e-11
-3.01459e-07 -2.02522e-07 -4.16924e-10
1.3026e-07 -4.55744e-07 -2.55757e-10
2.11321e-08 -9.30129e-07 -3.38411e-09
-2.71718e-10 -2.42239e-06 1.8047e-05
1.34658e-06 9.45202e-12 -2.64734e-05
-5.33103e-08 4.53402e-07 -3.16892e-10
2.2368e-07 2.21357e-07 -2.80773e-10
-2.36375e-07 5.67595e-08 -1.13238e-10
-7.22761e-08 1.11657e-07 -2.30572e-11
1.46048e-07 1.77311e-08 -7.90938e-11
1.80766e-08 6.63957e-08 -1.59577e-11
-2.06925e-07 5.75043e-08 -2.86621e-10
-3.84084e-07 -1.70064e-07 -6.39968e-10
3.64309e-07 -7.45422e-07 -7.38917e-10
1.79215e-07 -1.96028e-06 -8.89953e-09
3.62588e-07 2.37863e-11 3.24999e-05
6.91601e-09 4.71747e-07 -1.81551e-10
3.94686e-07 4.32171e-07 -9.00755e-10
-3.33129e-07 6.69382e-07 -1.03126e-09
1.36709e-07 6.45221e-07 -5.62439e-10
-1.55755e-07 -2.07113e-07 -1.93953e-10
-1.83801e-08 5.32862e-08 6.86464e-12
-4.33583e-07 8.46403e-08 -6.27397e-10
-4.8433e-07 -1.31138e-07 -9.22862e-10
2.14743e-08 -9.43274e-07 -2.70702e-09
3.01737e-07 -2.18992e-06 -1.15969e-08
7.06943e-07 -6.29739e-11 3.86374e-05
-3.83774e-07 6.89603e-07 1.92187e-10
-1.18753e-07 8.35793e-07 1.06495e-10
-6.10939e-09 9.09725e-07 -1.23752e-09
-5.54272e-08 7.73991e-07 -5.44267e-10
-4.19747e-07 3.49038e-07 -3.96748e-10
-4.74422e-07 8.28065e-08 -7.07911e-10
-5.34268e-07 -6.11412e-08 -1.23304e-09
-6.59054e-07 -1.42787e-07 -2.04966e-09
-1.89372e-07 -9.45781e-07 -3.74051e-09
-3.26532e-07 -2.23924e-06 -2.97748e-08
-5.36829e-11 5.93547e-07 1.01008e-05
-1.36939e-06 -1.7081e-07 -2.33706e-08
-1.05784e-06 -1.23373e-06 -7.17114e-08
-1.44077e-06 -5.72593e-07 -2.60454e-08
-1.37283e-06 7.43932e-07 7.68326e-09
-7.97411e-07 -2.03221e-10 -3.21627e-09
-1.71352e-06 5.97266e-07 7.23951e-10
-1.89642e-06 8.90236e-08 -1.21841e-08
-1.77371e-06 1.42878e-07 -1.04375e-08
-2.78673e-06 -4.21493e-07 -3.91296e-08
-1.73612e-06 -1.72305e-06 -1.30325e-07
-3.58732e-07 -8.50672e-07 3.39302e-09
-3.76781e-07 -4.31026e-07 1.30763e-09
-1.81798e-07 -4.14441e-07 7.51558e-10
-4.21903e-07 -3.48081e-07 8.6067e-10
-4.28511e-07 -1.81954e-07 7.39619e-10
-2.23801e-08 -1.09472e-07 6.78251e-11
-5.9249e-07 7.6977e-08 1.17007e-09
-5.09009e-07 1.96186e-07 9.81361e-10
-7.06966e-07 1.81416e-08 2.76204e-10
-1.08782e-06 8.46078e-07 -6.292e-08
-2.88791e-07 -4.50087e-07 1.05257e-09
-3.22208e-07 -1.38625e-07 5.49445e-10
-3.39349e-07 -2.2958e-07 5.5481e-10
-2.35604e-07 -1.08808e-07 4.03819e-10
-3.3282e-07 -1.37211e-07 4.33811e-10
-1.29068e-07 1.55166e-07 1.01838e-10
-4.78217e-07 1.95597e-08 5.70309e-10
-2.13558e-07 3.11068e-07 3.51082e-10
-4.29616e-07 1.64963e-07 1.4156e-10
-6.71059e-08 7.70529e-07 1.68883e-09