<?xml version="1.0"?>
<VTKFile type="UnstructuredGrid" version="0.1" byte_order="LittleEndian" compressor="vtkZLibDataCompressor">
 <UnstructuredGrid GhostLevel="0">
  <Piece NumberOfPoints="1909" NumberOfCells="1909">
   <PointData>
    <DataArray type="Float64" Name="Elongation" NumberOfComponents="3"/>
-5.80244e-05 -0.000169282 -0.00061064
-1.06577e-06 1.03926e-06 8.45412e-06
-0.000337002 0.000156705 5.45146e-06
-8.11536e-06 8.70022e-06 1.14739e-05
-1.00014e-05 -4.93539e-06 3.58483e-06
-9.7405e-06 1.73786e-05 1.13632e-05
6.76121e-05 0.000190537 -0.000256124
-6.72002e-06 2.46506e-05 3.2435e-05
3.31231e-05 1.98333e-05 -5.00573e-07
5.32167e-05 0.000162158 -1.01965e-05
0.000122539 9.03697e-05 0.000160468
1.83619e-05 3.88895e-05 -4.90343e-05
-1.49165e-05 2.77035e-05 1.31728e-05
9.98551e-07 4.98457e-06 7.95418e-06
2.22294e-06 -5.69817e-06 1.71127e-05
-5.51601e-05 -4.16198e-05 1.57565e-05
0.000516061 0.000378946 0.000175769
2.03408e-05 -0.000204567 -0.000272942
0.000421349 -1.68535e-05 0.00027733
-9.74982e-05 -0.000191747 -0.000104025
9.52478e-07 1.57969e-06 9.44398e-08
-0.000576994 0.000247111 0.000173538
0.000122751 5.04451e-05 -3.21208e-05
1.48056e-05 3.36427e-05 2.81747e-06
-2.73707e-05 -3.53272e-05 4.08878e-05
-9.82496e-06 1.73055e-06 4.54915e-06
7.85861e-06 -1.91201e-05 -3.06867e-05
-1.9486e-05 6.05268e-06 5.34326e-06
1.19092e-05 1.13854e-05 1.81701e-06
0.000112525 0.000264841 0.000150943
-5.2716e-05 1.36739e-05 -7.43753e-05
-5.99506e-07 5.28632e-07 2.62539e-07
-2.7127e-05 1.01457e-05 4.86184e-05
-9.57903e-07 8.06912e-06 -1.20694e-05
2.62883e-05 2.55115e-05 -7.84628e-07
-3.24437e-05 -3.58369e-05 2.03951e-06
-4.76565e-06 -1.46038e-05 -1.58338e-05
-0.000680412 -0.00050375 0.000761204
-2.11996e-05 -2.14698e-05 3.57069e-05
2.40341e-06 -6.36646e-07 -2.60469e-06
2.52392e-05 1.69987e-05 3.55022e-05
0.000260146 -4.05669e-05 -0.000158088
-0.000461204 0.000115245 0.000562317
1.82854e-05 1.8586e-06 2.03412e-05
4.10289e-05 -3.30882e-05 7.69247e-05
-0.000157529 0.000180111 4.26317e-05
-0.000224259 -0.000110052 0.000395011
-2.8878e-06 -6.2189e-06 -8.25849e-06
3.25816e-06 2.17636e-05 2.29984e-05
-4.38154e-05 -1.13165e-05 5.49636e-05
-1.47959e-05 1.29738e-05 -1.96318e-05
-1.10199e-05 -1.26582e-05 2.24919e-05
2.46355e-05 7.95326e-07 2.43616e-05
0.000188929 0.000356552 -0.000387763
3.36705e-05 2.43927e-05 4.27612e-05
7.92631e-07 -4.56608e-06 3.14327e-06
6.17511e-06 2.12748e-06 6.80856e-06
-0.000137041 -0.000135171 -2.43639e-06
0.000198424 9.58883e-05 0.000289487
4.82412e-05 3.95478e-05 4.40567e-05
2.84024e-07 -1.39058e-06 4.66382e-07
-1.52083e-05 -3.67519e-05 -3.51432e-05
-1.16643e-05 1.06952e-06 7.53718e-06
-1.61064e-06 -3.7374e-06 2.87024e-06
3.75344e-06 3.53251e-05 -3.33793e-05
-0.000437737 4.96601e-05 0.000373375
-0.000455041 -0.000240641 0.000518345
-1.04191e-05 5.44521e-06 -1.23471e-05
0.000109557 0.000173395 0.000212903
-1.41378e-05 1.17265e-06 -9.05492e-06
-2.02743e-07 2.75685e-06 -1.57612e-06
2.67e-06 2.2178e-06 3.51541e-06
0.000212312 0.000181438 0.000280722
-2.58675e-05 1.25451e-05 1.13634e-05
6.13444e-06 7.1866e-06 -4.19894e-06
-7.22036e-08 9.80791e-06 6.29208e-06
-2.30603e-06 -1.20751e-05 -1.90032e-05
-0.000102001 -1.64281e-05 6.26485e-05
-3.884e-06 3.33087e-06 -8.58206e-06
-5.2846e-06 1.007e-05 8.36582e-05
1.15615e-07 2.63594e-07 -1.17555e-06
6.06788e-05 8.00003e-05 0.000175553
-0.000193632 2.9662e-06 4.32292e-05
1.62263e-05 2.03255e-05 -3.09214e-05
-9.03849e-06 -1.95372e-05 -2.36413e-05
2.42223e-05 -1.4054e-06 -1.97891e-05
-4.24711e-06 -2.29785e-05 -1.46201e-05
-4.56493e-05 -4.07809e-05 -2.74669e-06
-2.16104e-05 0.000132522 0.000115967
6.74513e-06 -3.49449e-05 -2.17035e-05
6.46531e-05 -5.11082e-05 5.8763e-05
7.20421e-05 4.46331e-05 -2.47908e-05
-0.000126977 2.1132e-05 -8.45273e-05
-6.37189e-06 1.90462e-05 2.59156e-05
9.94883e-06 -1.76809e-05 9.70746e-06
3.29011e-05 -4.95528e-06 4.28483e-06
0.000199386 8.0931e-05 -0.000201708
-6.87262e-05 0.000150137 0.000112833
-8.99414e-06 -3.1632e-05 -2.57071e-05
-4.4899e-05 6.3179e-05 -0.00012269
2.4977e-05 -4.25793e-05 -1.49331e-05
0.000189665 0.00023596 -0.00012535
0.000241144 9.29146e-05 0.000250843
2.69837e-05 0.000155498 0.000133002
0.00017966 -2.5778e-05 0.000480185
0.000162797 -1.5424e-05 -6.28539e-05
0.000212963 0.000440765 0.00065417
3.00912e-05 -3.20908e-05 2.18394e-06
-3.97962e-05 -4.83376e-05 -5.2174e-05
-9.87566e-05 0.000173201 -0.000133958
-2.19317e-05 -7.60432e-06 6.6983e-05
7.52349e-05 8.96692e-08 0.000115382
5.56524e-05 -5.03143e-05 -1.75448e-05
-0.000144758 -6.97027e-05 -9.01951e-05
-4.46682e-06 7.4028e-06 2.62168e-05
-1.37199e-05 -2.04797e-05 -2.53547e-06
2.07584e-05 1.60228e-05 -1.55657e-05
-2.91483e-05 2.34055e-05 -1.00106e-06
4.08891e-05 1.11255e-05 3.33751e-05
5.91886e-05 -7.55546e-06 3.96808e-05
9.6525e-05 -0.000410749 0.000497167
0.000824952 -0.00041787 -0.000183414
-5.82816e-05 -7.90075e-05 8.159e-06
-0.000352408 -0.000507351 0.000679101
-2.61865e-06 -2.21322e-05 -7.52087e-06
-0.000275531 2.56926e-05 -8.23529e-05
0.000233993 -0.000109689 1.31917e-05
-6.31087e-05 0.000157173 0.000237866
0.000136187 6.91103e-05 0.000903262
-2.43985e-06 4.00981e-07 3.28729e-06
4.46323e-05 4.47559e-05 9.43465e-06
-2.83759e-05 6.89103e-05 0.00013113
2.08815e-05 1.57042e-06 -3.45356e-05
-1.15506e-06 -0.00013071 0.000461869
-0.000138569 -3.79848e-05 0.000138292
4.46787e-06 -2.9547e-05 2.46168e-05
5.11852e-05 7.35934e-05 9.30336e-05
4.64999e-05 8.3134e-05 -0.000350905
1.20112e-05 -5.74845e-05 4.89194e-05
0.000141317 -3.14261e-05 -0.000117802
4.07949e-06 2.81028e-05 -6.24572e-05
-7.96616e-06 1.01489e-05 -1.84204e-05
3.16078e-05 -0.000174271 0.000154397
0.000214351 -8.576e-05 0.000327936
4.5785e-06 -2.38816e-05 1.35317e-05
0.000228973 -0.000116035 -0.000160049
-0.000162092 0.000157171 -0.00015019
3.31055e-05 6.92408e-06 1.29833e-05
2.44398e-05 4.07772e-05 2.65996e-05
2.84348e-05 -7.82821e-06 3.83508e-06
8.0758e-05 -0.000122819 -5.06373e-05
1.73174e-05 2.71592e-05 6.26687e-05
-1.02372e-05 0.000184041 3.61796e-05
-1.19794e-05 2.84601e-05 -2.389e-05
0.000413391 0.000238463 7.53722e-05
0.000545321 0.000219435 0.000162997
-0.000341905 9.0398e-05 -0.000577224
-3.87933e-05 4.47489e-05 7.16037e-06
2.55811e-05 3.72026e-05 3.40794e-05
1.02487e-06 -1.25457e-06 4.62657e-05
-0.000111435 -0.000111966 7.27872e-05
-1.11675e-05 1.01204e-05 3.07183e-05
-0.000132687 -1.47452e-05 -0.000631581
-6.7928e-05 0.000466277 -0.000293122
-0.000378257 -0.000202755 -0.000487019
-0.000296268 0.000581694 -0.000456771
1.21005e-05 8.59786e-06 -1.67022e-06
-0.000224963 -0.000819146 4.96946e-05
-7.18488e-05 -3.81334e-05 9.96893e-05
0.000170503 0.000157245 3.68602e-05
6.18559e-05 -1.56888e-05 -0.000121709
0.000134532 0.000137436 0.00045883
3.03179e-05 2.23515e-05 2.00359e-05
4.0146e-05 3.68338e-05 2.28943e-05
0.000726834 7.85261e-05 9.33904e-05
-7.74788e-06 -2.6358e-05 -1.06224e-08
-0.000147476 5.56801e-05 -5.43426e-06
7.23266e-06 -5.03492e-05 -1.29128e-05
0.000250339 -3.37332e-05 -0.000278737
-0.000113071 -0.000257457 -0.000281201
5.15557e-05 -0.000104015 5.43729e-05
-2.82871e-05 -2.16854e-06 -6.80424e-05
-9.00843e-05 0.000204832 -0.000109354
-2.50857e-05 7.74739e-06 -4.91316e-05
-1.22103e-05 1.50447e-05 4.76526e-06
-1.77383e-06 1.03322e-05 1.38107e-05
5.79655e-05 -2.57317e-05 4.26057e-05
4.17868e-05 -6.06914e-06 -5.13332e-05
-9.00644e-05 -0.000269537 0.000397923
-4.42334e-05 -0.000111421 -0.000120191
-4.46402e-05 7.43336e-05 -8.65367e-05
-6.34485e-06 -8.91917e-05 -5.3114e-05
4.37703e-05 2.2271e-05 -5.3659e-06
-7.83941e-05 -1.99145e-05 -2.11012e-05
2.67547e-05 -1.21609e-05 -4.27599e-05
6.67918e-05 -6.87131e-06 0.000114014
5.62978e-07 -4.70037e-06 -6.26487e-06
1.73925e-05 6.34046e-05 9.02905e-06
2.9557e-06 4.12963e-06 1.59676e-06
2.50663e-05 2.89715e-05 5.78821e-05
-0.000101135 -7.90708e-06 6.91379e-05
6.52889e-05 1.25161e-05 4.80706e-05
0.00010921 0.000332159 -0.000319942
-2.94183e-07 -3.05863e-07 1.67565e-08
-0.000318214 -0.00013624 -0.000370115
-2.19933e-05 9.17096e-06 5.40194e-05
-5.74935e-05 6.83831e-07 -8.2087e-05
-8.26516e-06 1.88191e-05 -1.70533e-05
3.10016e-05 0.000124234 -0.000170565
-9.21594e-05 8.973e-05 -7.1046e-06
-5.20053e-05 -4.66821e-06 -1.66327e-05
2.33625e-06 7.21477e-07 1.01289e-05
-0.000201977 0.000241509 -6.74866e-05
1.44271e-05 -1.26096e-06 3.25743e-06
-0.00020348 -0.000138334 -0.000756287
0.000754712 -0.000117003 -0.000244542
-9.55514e-05 0.000231883 0.000124366
-1.85726e-05 2.90746e-06 1.23572e-05
-5.66172e-06 8.15425e-06 -4.42309e-07
-7.84003e-06 1.12029e-05 0.00014698
7.71856e-06 -0.000150238 0.000178335
-1.04482e-05 1.24174e-05 4.9048e-05
0.000133036 0.000839394 0.000270952
-0.000452947 -0.000112905 0.000408552
0.000283732 0.000214889 -1.98165e-05
-7.27419e-05 3.302e-05 -5.74232e-05
-1.33248e-05 -1.21556e-05 -1.43157e-05
-3.12817e-06 -1.64612e-06 5.87859e-07
1.05077e-06 -0.000130042 0.000894414
2.03784e-05 2.24952e-05 6.2797e-06
0.000128107 3.97065e-05 -0.000271738
-4.62655e-05 -2.60289e-05 -4.16253e-05
5.58406e-05 7.30713e-05 0.000199142
-4.07918e-05 -4.04852e-05 -3.42374e-05
0.00024181 0.00016635 -0.000412568
2.27631e-06 6.5508e-06 1.42195e-05
4.28408e-06 -5.60338e-06 -0.000103064
7.82528e-05 -6.49003e-05 0.000251406
-7.37332e-05 -4.63587e-05 5.14741e-05
-3.92945e-05 2.99799e-06 -2.0097e-05
-2.47839e-05 -1.08976e-05 -0.000113796
0.000324296 0.000414309 -0.000365547
-0.000515181 -0.000106325 -0.000376411
-0.000123557 -0.00012405 2.92769e-05
1.81468e-05 -4.93367e-05 -3.63307e-06
-2.03227e-05 2.00034e-06 -2.724e-05
-6.44636e-05 2.51832e-05 -1.54213e-05
-1.4595e-05 -2.52544e-05 7.31255e-06
2.22615e-05 2.45727e-05 2.08841e-05
5.95169e-06 -7.73955e-06 -4.04452e-06
-1.39945e-06 4.54519e-05 -0.000139902
9.37594e-06 3.2609e-05 2.12046e-05
-4.38887e-05 -2.43708e-05 4.4509e-05
5.31408e-05 1.28451e-05 -8.67401e-05
-1.6879e-06 3.46911e-06 -4.42464e-06
1.26657e-05 -8.86491e-07 -0.000295428
-4.86753e-05 2.04861e-06 -0.0011471
3.34402e-05 5.01959e-05 0.000185892
-4.23111e-06 -2.49131e-05 -1.892e-05
-3.55366e-07 -5.24759e-07 -1.59204e-06
3.57122e-06 0.000206366 -0.000185743
-4.16126e-05 -0.000165689 -0.000154742
-7.11208e-05 4.29901e-05 7.42765e-05
-8.55595e-06 -1.68851e-05 1.10033e-05
-4.53525e-06 -3.41552e-05 0.000323108
1.86699e-05 9.14659e-06 2.46981e-05
0.000118697 5.5152e-06 -4.29706e-05
-1.82682e-05 -9.08306e-06 1.96732e-05
-4.56639e-05 1.49229e-05 5.87806e-07
9.50792e-05 9.94228e-05 0.000173356
2.49206e-05 0.000174232 0.000117606
-0.000134378 0.000168041 -7.71154e-05
-6.05694e-05 -6.28754e-05 -8.04782e-05
-8.33862e-05 0.000369125 0.000119847
5.53347e-05 4.08327e-05 1.7216e-05
3.33871e-06 3.83052e-05 -1.85097e-05
-2.04706e-05 6.10722e-05 8.27219e-05
7.84764e-05 -7.45335e-05 3.10679e-05
3.34458e-05 8.24277e-06 3.71929e-05
0.000341081 5.59693e-05 0.000167128
-0.000204099 1.88427e-05 0.000189652
-0.000123754 0.000114929 -0.000207291
5.35072e-05 0.000271246 0.000146588
-8.59915e-05 -0.000164617 -1.26592e-05
-3.25288e-05 -3.41883e-05 2.15107e-05
0.000197929 0.000297721 9.26331e-06
-2.80889e-05 -4.25011e-05 -2.56133e-06
-0.000239109 -8.65508e-07 0.000273862
1.07582e-05 -5.46998e-06 2.1345e-06
1.55456e-05 -1.03872e-05 1.29825e-06
-5.16233e-06 6.04381e-06 2.42877e-06
-3.51683e-07 2.20259e-05 -7.52537e-06
-3.97633e-05 5.10093e-05 3.92267e-05
-1.86729e-05 -9.44426e-05 9.13475e-05
-2.95104e-05 6.9951e-06 1.68345e-05
-5.09263e-05 0.000155102 -0.000108269
1.38291e-05 -1.0062e-05 4.34332e-06
4.75944e-06 2.14363e-06 -5.26074e-06
0.000120772 -0.000125045 -0.000111613
2.17016e-06 -8.20128e-05 3.19127e-05
-0.0001645 2.78018e-05 9.65266e-05
-3.47341e-05 4.90603e-05 7.96805e-07
-3.93904e-06 2.68755e-06 -2.00015e-06
-2.99715e-06 3.91283e-05 -3.24899e-05
0.000119242 -9.68141e-06 -0.000149958
-0.000108906 2.38528e-05 -1.79618e-05
0.000259534 0.000475939 -0.000331565
-0.000618567 -5.97903e-06 0.000388175
-0.000659835 -0.000162219 -9.73519e-05
0.000151334 -4.801e-05 -0.000211043
5.76312e-05 -6.74253e-06 0.000189872
-1.57857e-06 -8.76042e-06 7.24573e-06
-2.03848e-06 7.33093e-06 6.23108e-06
3.08839e-05 3.79024e-05 -7.82689e-05
-2.87987e-05 -9.86758e-05 -8.862e-06
-4.14456e-05 -6.61971e-05 6.50598e-06
4.05787e-05 -0.000185501 0.000117885
0.000157452 0.000154907 2.55809e-05
-8.68619e-05 8.62142e-05 -9.60616e-06
-4.4277e-05 -4.13148e-06 2.67407e-05
1.23031e-05 -1.52311e-05 2.5492e-05
0.000124368 -4.6084e-05 -0.00025599
-0.000103658 -1.73765e-07 -0.000103652
-3.09031e-05 -1.95838e-05 3.80855e-05
-8.92526e-06 -3.23558e-05 -3.84588e-05
3.42907e-05 3.457e-05 -3.01641e-06
-1.8865e-05 -1.70951e-06 -1.70212e-06
-6.05532e-05 6.63854e-05 7.86542e-05
1.82307e-05 2.21653e-05 -1.27419e-05
-2.12922e-05 1.42659e-05 -1.30681e-05
-1.97885e-05 -2.20638e-05 -5.53036e-05
-9.46822e-05 3.526e-05 6.32434e-05
-2.4132e-05 0.000417022 4.72495e-05
0.000217302 -0.000128547 -3.69915e-05
-3.90382e-05 0.000352323 -0.000251036
1.1502e-05 -2.46302e-05 -2.30771e-05
-4.52314e-05 -6.5633e-05 -7.10284e-07
-2.5348e-06 1.03176e-05 -9.82538e-06
-8.9419e-06 -5.35514e-06 -1.35887e-06
-1.40677e-05 2.08505e-05 7.06362e-06
-6.96593e-05 -7.05756e-05 3.07439e-05
-1.02037e-07 -1.34793e-07 2.94939e-08
-0.000203432 -4.58368e-05 -0.000244615
0.000250062 0.000337191 -0.000273962
6.61388e-05 -3.83738e-06 -7.435e-05
-1.50785e-05 2.88974e-06 -1.38471e-05
2.54291e-06 1.18602e-06 2.74571e-05
1.66421e-05 -1.11803e-06 5.93394e-06
-0.000147825 -1.32942e-07 -0.000109781
0.000328641 -0.000703194 -0.00112936
-0.000760146 0.000462073 -0.000924589
-2.63479e-05 -0.000154814 0.000290978
-0.000207249 0.000187297 0.000225654
-7.6652e-05 6.02037e-05 2.72256e-05
-2.72068e-05 -3.13887e-06 2.90352e-05
1.15754e-05 -4.36755e-05 -1.30924e-05
8.08666e-06 1.80857e-05 -3.5142e-05
-0.00033683 -4.9709e-05 -0.000342141
0.00029736 0.000191507 -0.000118289
-0.000101496 1.97044e-05 8.07316e-05
-3.77782e-05 2.11519e-05 -9.41148e-05
3.84612e-05 -0.000220641 1.49089e-05
-1.85666e-05 3.68534e-06 1.1731e-05
6.29873e-06 3.62259e-05 1.45872e-05
-3.32391e-05 -0.000214294 8.49638e-05
-1.71653e-06 -0.000230551 -0.000165309
8.97206e-08 1.50083e-05 -8.98037e-06
-4.58101e-05 2.79299e-05 1.9312e-05
8.65296e-06 -1.19515e-05 -1.10633e-05
-2.9331e-05 -1.51314e-05 -7.77855e-05
7.93053e-05 -1.21338e-05 4.73708e-05
8.08983e-05 -9.4613e-06 -0.000191304
1.76391e-05 -1.96997e-05 -0.000281034
-2.2675e-05 1.4502e-05 -5.89822e-05
8.31402e-06 2.75295e-06 1.37678e-05
-6.09325e-05 6.72894e-05 -7.52238e-06
-2.276e-05 -7.92708e-06 -2.7022e-05
3.0989e-05 3.59221e-05 3.26177e-05
-9.79411e-05 -7.31008e-05 2.09726e-05
-1.23371e-06 -6.14064e-07 -2.57279e-07
1.60348e-06 4.1319e-05 6.6321e-06
-4.74164e-05 -2.57968e-05 4.05145e-05
-4.04453e-05 4.44497e-06 6.94935e-05
3.27438e-05 1.54155e-05 6.36159e-05
-1.25887e-05 -3.00883e-06 -6.18704e-06
-5.67966e-05 -1.33812e-05 5.56715e-05
-5.77735e-05 2.60605e-06 6.51525e-05
4.64593e-05 3.46324e-05 3.48326e-06
8.08872e-06 3.55482e-05 -2.58648e-05
2.95146e-05 3.22208e-05 6.94256e-06
-2.82714e-06 4.34915e-06 -3.4556e-05
1.51718e-05 -4.51756e-05 1.72272e-05
-2.02135e-05 -1.66722e-05 -3.23184e-05
0.000115573 1.26212e-05 2.16894e-05
6.02823e-05 -1.16701e-05 -6.59912e-05
4.12831e-05 2.47715e-05 1.01329e-05
2.30793e-05 0.000151465 8.92482e-05
0.00018769 5.11489e-05 0.000280801
-2.28176e-06 -4.81585e-06 -1.7569e-08
5.42167e-07 -3.874e-07 5.62003e-06
-1.13795e-06 9.08665e-06 3.11571e-06
-1.83535e-05 3.41187e-05 -9.28564e-05
4.28787e-05 5.74715e-06 2.42507e-05
-1.08418e-05 2.06909e-06 -8.55873e-06
1.06528e-05 7.12772e-06 5.48593e-06
-0.000344933 0.000329206 -6.5797e-05
8.44457e-05 2.64344e-05 0.0002092
0.000216887 0.00040936 7.5375e-05
-1.04594e-06 1.18558e-06 2.00993e-06
7.41241e-06 -1.91436e-06 1.36016e-05
0.000286226 0.000329982 7.72046e-05
-0.000163858 -0.000129501 0.000260165
3.71543e-05 -9.76187e-05 -1.57128e-05
1.51454e-05 -0.000164328 -0.000207667
0.000624675 -0.000132817 -8.301e-05
6.76161e-06 -3.11329e-06 -2.9378e-06
2.39508e-05 5.85405e-06 1.22225e-05
-3.54996e-05 7.69065e-05 4.20258e-05
-6.85505e-06 -1.08333e-05 -2.95187e-05
-4.07608e-05 -3.10181e-05 3.96453e-05
-4.94722e-05 2.96192e-06 -2.81917e-05
-0.000111111 0.000123193 6.24578e-05
-0.000101979 6.98494e-05 7.36267e-06
-6.10328e-05 1.0765e-05 -2.06507e-05
6.1024e-05 -0.00020529 0.000167382
6.57032e-05 -6.37224e-05 -9.29037e-05
-2.36937e-06 0.000360253 0.000107417
-3.93478e-05 -5.94978e-05 2.12569e-06
8.92353e-07 1.50093e-05 -1.37834e-05
0.000139536 8.19997e-05 -1.7775e-05
-3.03908e-05 2.87447e-05 -1.95417e-05
2.87017e-05 -1.85096e-06 -4.39201e-05
-2.63722e-05 2.98862e-05 -1.50136e-05
-7.3606e-05 1.95433e-05 -4.91641e-05
-7.87911e-06 4.22845e-06 4.79688e-06
-1.28981e-05 1.21892e-05 8.23707e-06
8.1282e-07 -4.79883e-06 -1.92033e-06
2.19673e-06 -1.97228e-06 -4.07828e-06
-5.09436e-05 -1.01651e-05 -4.71297e-06
3.66754e-05 -8.49334e-05 -0.000383335
-9.34206e-06 -5.48927e-06 -7.63755e-06
5.0764e-05 0.000102139 -6.19553e-06
0.000129349 2.16334e-05 -0.000166689
-4.56197e-06 -0.00144421 -0.000237403
-0.000108926 1.25515e-05 9.95365e-05
-0.000987488 -0.000163035 -0.000153408
-0.00139157 -0.000293619 -0.000127133
-0.000643649 0.00019044 -0.000325975
0.000213018 -0.000392922 6.49513e-05
1.43747e-05 2.74019e-05 3.32433e-05
-4.68934e-05 -1.90141e-05 4.04854e-05
1.60037e-06 -1.13087e-05 2.10995e-06
1.27791e-06 -4.96486e-05 -4.57226e-06
-1.18585e-05 2.99628e-05 -9.08087e-08
-3.28682e-05 -2.9348e-06 -3.11163e-05
7.69719e-05 2.42065e-06 -8.97293e-05
-2.46049e-05 4.79994e-05 -0.000167196
3.99631e-05 5.85979e-05 0.000355345
-0.000117468 -0.000509628 -0.000319416
0.000569527 -1.98958e-06 -0.000228266
-4.70846e-05 1.83072e-06 2.81537e-05
0.000371105 -0.000256629 -3.43565e-05
-0.000284072 0.000228735 -0.000116546
0.000326638 6.32811e-05 -5.18596e-05
0.000202897 0.000163628 4.22141e-05
4.69233e-05 -0.000265771 -7.20665e-07
1.69069e-05 0.000175921 0.000162824
5.65057e-05 -5.10458e-06 -5.97851e-05
-0.000227702 0.000260728 -0.000332044
9.10519e-05 -0.00033104 8.67694e-05
-4.33709e-06 -0.000212412 -0.000208069
-3.38272e-06 7.57498e-07 -1.68732e-06
1.18462e-06 -0.000103596 -6.26952e-05
0.000378861 -0.000190179 -0.000406979
-2.69211e-05 -5.17522e-05 -5.93386e-05
-0.000406369 -0.000525432 -0.000214509
4.67382e-05 -1.50754e-05 8.31836e-05
1.50774e-05 1.70957e-05 -3.34511e-05
-7.28638e-05 -7.81739e-05 7.40231e-05
6.32952e-05 -1.52178e-06 -8.35535e-06
-2.34542e-05 3.72612e-05 3.05376e-05
-0.000129066 0.000118902 -0.000176952
4.37499e-05 5.73271e-05 3.64104e-05
-2.94292e-05 5.17555e-06 0.000138097
-0.000139973 -0.000119921 -0.000147392
-0.000181348 -7.75246e-05 0.000159856
3.13107e-05 5.98345e-05 -5.56151e-05
6.18998e-05 0.000103307 0.000106758
-7.99631e-05 -7.35447e-05 1.66605e-05
-8.36707e-06 6.58209e-08 3.51817e-05
-7.56074e-06 2.32261e-06 6.94839e-06
-6.85619e-06 -1.16775e-06 5.94946e-06
-8.46419e-08 4.17587e-08 -2.12492e-08
3.34007e-06 -2.7553e-06 3.5302e-06
1.62502e-05 -5.84769e-05 -1.54831e-05
-4.90414e-06 2.19798e-07 2.57068e-06
-4.26292e-05 1.24227e-05 1.32266e-05
-6.73231e-07 1.10769e-05 -2.08709e-06
-3.18584e-05 1.3139e-05 3.93745e-05
-3.93306e-05 8.88124e-05 4.36064e-05
-2.63958e-06 5.42082e-06 6.91265e-06
1.15406e-05 3.44251e-06 -5.73362e-05
-1.2887e-05 2.55385e-05 -2.41633e-05
5.23842e-05 1.83007e-05 4.01812e-05
-1.10386e-05 8.16351e-07 6.85571e-06
-1.89597e-05 -0.00010914 1.72042e-05
1.77536e-05 0.000184955 -1.38363e-05
2.40861e-05 -0.000147772 3.00817e-05
-1.15341e-05 -2.44192e-06 -6.89603e-06
-4.6881e-05 1.95714e-05 -5.71349e-06
1.37163e-05 -7.89588e-05 -2.70358e-05
-2.60642e-05 -4.38122e-05 -4.27831e-05
-3.47797e-05 -4.09914e-05 5.4499e-05
-1.95414e-06 -1.27399e-05 -1.00226e-06
-5.78215e-07 -6.26132e-07 8.26029e-06
-3.80431e-05 -5.52852e-05 3.28824e-05
-3.24018e-05 -2.83149e-05 -3.04721e-05
-8.39658e-05 -1.35349e-05 -3.74545e-05
-2.59703e-06 3.45339e-05 2.33864e-05
1.37445e-05 -2.30005e-05 -2.58868e-05
-6.23307e-05 -2.60442e-06 -4.0465e-05
-4.45788e-05 -7.04359e-05 0.000316314
-1.14574e-06 3.36119e-07 -1.31379e-06
1.41651e-05 -0.000322177 -0.000827012
1.88624e-05 2.31866e-05 2.58494e-05
-2.26581e-07 2.92088e-07 1.05257e-08
4.2516e-05 8.73609e-05 0.000109186
-1.67355e-05 1.73744e-05 -1.39526e-05
1.08527e-05 -2.543e-05 1.68045e-05
2.89952e-06 -2.59384e-05 -1.5794e-05
4.72958e-06 6.40425e-06 6.78562e-06
8.87511e-06 4.3643e-06 -7.57721e-06
3.77172e-05 -0.000166766 -3.36465e-05
3.25657e-05 -1.60877e-05 9.28001e-06
-7.92807e-05 -4.57382e-05 -0.000154492
-2.06966e-07 2.65191e-07 1.55524e-07
8.87807e-05 2.53142e-05 1.74187e-05
3.23005e-05 -1.98309e-05 -2.26615e-05
0.00039156 -1.86736e-05 -0.000388022
7.27495e-06 -0.000109702 -6.51543e-06
-0.000804967 6.38251e-05 -0.000463212
-0.000494542 -0.00018636 0.0004012
4.73921e-05 2.94056e-05 -0.000506176
-7.58862e-05 -8.48474e-06 -7.35762e-05
2.40004e-05 -3.06389e-06 -3.0526e-05
-0.000174291 -2.34953e-05 -0.000157995
-4.04214e-05 -5.3491e-06 -5.4788e-06
1.81185e-06 -7.95413e-06 -7.36053e-06
-1.5891e-07 -5.3035e-06 1.99202e-06
-7.47715e-06 -3.6867e-06 2.44058e-06
3.33613e-06 -2.32253e-05 -3.71314e-06
9.97388e-05 5.56993e-05 3.48058e-05
-9.18975e-05 -4.39073e-06 7.35415e-05
-0.000118089 -0.000160554 -5.90453e-05
0.000153099 7.13293e-05 -0.00010437
-0.000119313 -8.43288e-05 -0.000186204
-1.63136e-05 -5.15796e-05 -0.000389303
8.48546e-05 -0.000148247 -9.88243e-05
0.000176086 -1.38101e-05 0.000107857
-0.000329419 -0.000103529 -4.03785e-06
6.47114e-06 1.2791e-06 -9.58075e-06
-0.000138555 -2.28886e-05 2.04692e-05
5.38876e-05 3.21469e-05 3.96784e-06
-1.15038e-05 2.74208e-06 -3.62295e-06
2.63273e-05 -1.58332e-05 1.35486e-05
-9.5876e-06 6.54937e-05 -1.93611e-05
1.82337e-05 -9.1199e-06 2.66054e-06
-2.46123e-05 1.0788e-05 -2.16745e-05
2.52917e-06 1.45187e-05 -3.30321e-05
-2.90022e-05 8.36354e-05 0.000105179
-2.88455e-06 1.04447e-05 5.63443e-06
-2.43081e-06 -1.66898e-05 9.14463e-06
1.0509e-05 2.02661e-06 1.04303e-05
5.64688e-06 1.82362e-05 -9.8603e-06
5.88848e-05 -0.000148827 -1.11329e-05
-3.51267e-07 -4.84224e-06 8.90074e-06
0.000186722 0.000173627 -0.000130517
4.54396e-07 -8.75887e-07 -1.38398e-06
3.45327e-05 3.22248e-05 9.01461e-06
-2.48202e-05 7.8475e-05 9.23378e-05
-2.22662e-05 -7.48022e-06 1.65736e-06
-1.85458e-05 -1.40722e-05 2.02029e-05
-7.25881e-06 -5.73288e-06 -1.00104e-05
-4.10789e-05 2.75729e-05 1.74752e-05
1.51228e-05 -3.1026e-05 1.25968e-05
1.83779e-05 4.99692e-06 -2.08855e-05
-2.73919e-05 7.66479e-05 -1.29092e-05
-4.65311e-05 -7.85009e-05 4.43607e-05
4.97398e-05 -5.60003e-05 -8.20103e-05
4.86636e-05 -3.9394e-05 -2.72794e-05
-5.36314e-05 -9.61515e-05 6.96914e-05
0.00017334 0.000162436 -0.000409841
0.000116857 -2.56509e-05 -4.72488e-05
-1.48607e-06 -2.59334e-06 1.0011e-05
7.3555e-06 -2.0158e-05 -1.33118e-06
-3.16961e-05 -7.54171e-05 2.13948e-06
3.30014e-08 -7.13019e-08 2.79946e-06
2.76012e-05 -2.79535e-05 -4.52819e-05
-9.99338e-06 0.000124988 5.8863e-05
5.25386e-05 0.000129602 -0.000120457
3.86425e-06 4.45408e-05 4.45293e-05
2.90477e-05 2.00794e-05 9.16826e-06
-6.65986e-05 -1.29485e-05 6.20725e-05
-8.04731e-08 -1.90851e-06 -8.87716e-07
8.9054e-05 1.98139e-05 -0.000189674
-2.80691e-05 -2.6105e-05 9.42574e-06
0.000159794 -0.000210882 9.57501e-05
-8.17514e-05 4.40565e-05 0.000543476
-0.000386551 1.34824e-05 -0.00033761
-4.78407e-05 0.000179092 6.55733e-05
-5.18889e-05 9.48474e-05 5.06382e-06
1.35372e-05 -0.000126591 0.000122041
-0.000186123 0.000249728 0.000111784
2.77791e-05 -7.09589e-06 0.000103635
1.63053e-05 -1.87818e-05 6.64726e-06
-1.90765e-07 -9.39941e-05 9.36724e-05
1.34238e-05 -5.62807e-06 -1.29039e-05
2.04966e-05 -3.53135e-06 -1.84715e-05
-4.96935e-05 5.51312e-06 5.35708e-05
-2.11152e-05 1.9227e-06 8.56999e-06
-1.6767e-08 1.20172e-05 6.94873e-06
5.38838e-05 -1.24148e-05 -8.14056e-06
-0.000117749 5.31927e-05 -1.97044e-05
-4.45034e-05 1.80999e-07 6.00914e-05
1.21822e-05 -1.00693e-05 -6.63391e-06
-4.08384e-05 4.19804e-05 -5.30485e-06
-5.36041e-05 9.06455e-05 4.4601e-05
-2.31906e-07 -1.60485e-06 -4.12717e-05
0.000267226 0.000720849 -0.000205245
-6.23821e-06 1.70767e-05 2.43132e-05
-6.45995e-05 -8.48507e-05 -2.68659e-07
-0.000131667 -8.77323e-05 -5.83979e-05
-0.000142737 -0.000345153 -0.000188374
-6.74151e-05 7.93e-05 -0.000423937
5.49049e-06 7.05941e-05 0.000117488
-0.000301317 0.000493123 0.000287685
-0.000408153 -0.000191097 -0.000197406
-3.0382e-05 -4.20429e-05 5.51871e-05
2.19573e-05 -5.44225e-06 5.1942e-05
1.82041e-05 3.78091e-05 -8.10609e-06
-6.87117e-05 -1.55852e-05 -8.92951e-05
4.55951e-05 4.7383e-05 9.08999e-05
-9.67507e-06 8.23603e-06 2.36947e-05
2.85506e-05 6.96642e-05 -3.89589e-06
-1.72513e-06 2.9901e-05 1.27622e-05
6.71807e-05 2.82258e-05 -6.63428e-05
3.31928e-05 9.66915e-06 1.06241e-05
7.09282e-05 3.52861e-06 -4.11971e-05
3.67005e-07 -6.27662e-06 2.56578e-05
-1.0779e-05 9.97969e-06 -1.39334e-06
-2.34503e-05 -0.000108076 0.000170558
-1.21743e-05 -7.64514e-06 0.00014295
2.69237e-05 -5.89601e-05 -2.81516e-06
2.20883e-06 -4.43229e-05 2.33476e-05
4.58466e-05 6.28435e-05 9.79274e-05
0.000132985 0.000108938 0.000422255
0.000157669 9.27709e-05 -0.000537713
-0.000145713 0.000137829 0.000173085
-0.000138713 -3.44074e-05 0.000143291
-1.6735e-05 1.32176e-05 4.03841e-05
-0.000201223 5.6875e-05 0.000110656
4.5181e-05 7.83745e-05 -3.56216e-05
0.000476502 -5.90732e-05 -0.000747287
3.65303e-06 -2.27861e-05 7.47288e-05
-2.39442e-06 -2.43928e-05 1.46423e-05
-4.17486e-05 1.98001e-05 0.000112802
-1.03897e-07 7.40168e-07 -7.98295e-07
3.67684e-06 -2.27254e-05 7.98756e-06
-8.19137e-06 7.54396e-06 1.1264e-05
-1.6493e-05 1.34808e-05 -1.07647e-05
-2.5309e-05 -2.2399e-05 -4.5951e-05
6.74989e-07 3.35598e-07 1.15651e-06
1.05374e-05 3.93316e-05 0.000101106
-0.000208131 -0.000243691 0.000352488
6.00049e-05 -2.81609e-05 9.50359e-05
-0.000156515 -8.61598e-05 -0.00012658
1.41745e-05 1.03908e-05 -1.32053e-05
5.56749e-06 4.73003e-06 5.22041e-05
-1.90371e-05 -5.03874e-06 3.29632e-05
5.82533e-05 -4.71564e-06 4.65653e-05
1.29162e-06 -4.29791e-06 -1.43176e-05
2.69811e-05 9.25641e-06 1.58635e-05
-2.7435e-05 -4.50187e-06 -2.55796e-05
1.57337e-06 -1.03981e-05 -1.04548e-05
4.51346e-05 -3.94036e-06 -1.88271e-05
-0.000116119 8.55767e-05 0.000108609
-0.000234079 -0.000211829 -0.00030088
0.000118555 5.03895e-05 6.06409e-05
1.07002e-05 -3.3715e-05 1.69027e-05
2.70626e-05 2.85949e-05 1.60826e-05
2.67264e-05 -2.09084e-05 2.03054e-05
-2.69282e-05 6.02068e-05 3.90483e-05
1.94942e-06 3.14876e-05 4.37598e-06
1.61739e-06 -4.7006e-06 8.61854e-06
0.000126951 -0.000259327 -6.45216e-05
-2.04866e-05 6.71507e-05 -2.78423e-05
-5.14081e-05 1.25901e-05 0.000104557
7.39707e-05 -4.24635e-05 -0.000175479
-3.89295e-05 -7.42453e-06 -2.15123e-05
4.60251e-05 1.68688e-05 -1.71033e-05
-6.3287e-05 5.20126e-06 3.48805e-05
6.50671e-06 5.3164e-05 4.52278e-05
2.53938e-05 9.60101e-06 -2.90828e-05
-0.000106926 -0.00014675 -0.00010312
6.56918e-06 8.60604e-05 -6.52856e-05
-2.07276e-05 3.72842e-06 7.84898e-06
3.23518e-05 1.39462e-05 -1.95309e-05
9.57579e-06 -2.58271e-06 -1.53364e-05
1.73256e-05 -2.60104e-06 7.71089e-06
6.65405e-05 -3.67619e-05 -0.000106391
2.23207e-05 -5.89387e-07 3.19093e-06
1.72851e-05 6.33498e-05 -8.5727e-05
0.000124305 0.000142341 0.00027535
-1.89565e-06 7.81986e-06 6.47589e-06
6.26714e-06 -5.00081e-06 -5.72368e-06
-5.45118e-05 1.44149e-05 -1.13932e-05
1.24588e-05 -3.80413e-05 -9.70027e-06
-4.57217e-05 -0.000129828 9.05821e-05
1.39301e-05 6.57348e-05 8.92784e-05
-8.20901e-07 8.84671e-06 1.93865e-06
-1.7217e-05 -2.28691e-05 2.34727e-05
1.34514e-05 -1.61782e-05 -1.73519e-05
-0.000151217 3.0036e-05 6.98027e-05
1.21693e-05 -7.76724e-05 -3.84348e-05
1.20649e-05 7.78685e-06 -1.84332e-06
4.48097e-05 4.29283e-07 -2.15871e-05
4.5614e-05 3.33678e-05 -9.64192e-06
5.56477e-06 2.56316e-06 5.31395e-06
-0.000101278 -4.61377e-05 -5.38897e-06
3.76492e-06 5.38212e-06 1.61828e-05
-1.28795e-05 -5.132e-06 1.15049e-05
-1.32198e-05 1.07762e-06 -1.43243e-05
-6.19808e-06 2.60858e-05 -9.31327e-06
8.82338e-06 1.20104e-05 8.73194e-06
-2.37318e-05 -2.16063e-06 1.06629e-05
4.10521e-06 1.84851e-05 -1.26765e-05
-3.64511e-05 6.13469e-05 -6.6568e-05
-3.97553e-06 -3.35659e-06 -7.66903e-07
-2.88972e-05 7.3306e-05 -7.33245e-06
3.42898e-05 2.55251e-05 1.15366e-05
-1.93767e-05 0.000111416 0.000131898
-6.5607e-05 -3.78268e-06 0.000537811
0.000176278 6.76771e-05 0.00050645
-7.82453e-05 1.12612e-05 2.67935e-05
-4.1862e-05 -0.000167711 8.53119e-05
0.000120523 0.000125808 -0.000307755
0.000217052 0.00010529 0.000218165
1.44985e-05 6.54553e-06 1.75581e-07
-1.74572e-06 2.4762e-06 8.45479e-07
-6.38569e-06 1.54506e-06 -1.59085e-06
-4.6416e-06 -7.19919e-06 -8.95511e-06
0.000193545 7.00661e-05 -0.000120214
-0.000193236 -9.21497e-05 -0.000179349
4.01508e-06 -1.21976e-05 6.51398e-07
-6.15705e-05 0.000128762 5.73572e-06
0.000290735 -8.94684e-05 -0.000222374
0.000215774 -8.01639e-05 -0.000202953
-5.78382e-06 5.24326e-05 -4.31007e-05
2.85088e-05 -6.53948e-05 3.72881e-05
-1.62271e-05 -2.09944e-05 -1.34175e-06
-9.97628e-06 1.33382e-05 -2.77526e-05
0.000123403 1.39564e-05 0.000105366
-1.47358e-06 -1.14444e-05 -6.78847e-06
5.72098e-05 5.45055e-05 -4.36015e-06
-5.71274e-06 -9.08743e-05 -2.79316e-05
-3.2551e-06 9.66254e-06 -9.11777e-06
-7.5554e-05 9.2743e-05 -6.95292e-05
1.93707e-06 -5.02405e-05 7.66749e-05
-9.24774e-06 4.51401e-05 -1.6374e-05
4.03852e-06 4.44735e-05 -9.10776e-05
6.13067e-06 -9.77214e-06 -1.02967e-05
-0.000240255 7.29001e-05 0.000291048
-5.20847e-06 2.5419e-06 -2.10813e-05
-2.63403e-06 5.92618e-06 9.52943e-08
1.91947e-05 3.10816e-05 3.72024e-06
-2.13619e-05 2.09216e-05 3.24514e-05
-2.94558e-06 5.80348e-06 8.59371e-05
6.21365e-06 9.88327e-06 -1.17956e-05
-1.60508e-05 -4.47639e-07 2.55387e-06
-3.33008e-05 -0.000162514 -1.52615e-05
-0.000283925 0.000480642 -0.000321853
0.000210465 -0.000620056 -0.00059377
-1.34786e-06 7.60417e-06 8.3596e-05
-3.16866e-05 -8.04887e-05 -5.55175e-05
5.29303e-05 1.14632e-05 -7.68002e-05
-1.80586e-06 2.01275e-05 -2.79942e-05
-8.68529e-06 -0.000110767 -0.000107381
0.000106229 -1.02073e-05 2.35964e-05
1.63357e-06 5.83403e-05 1.99647e-05
-1.05054e-05 1.34778e-06 1.0141e-05
4.31632e-06 -8.81931e-05 -2.97e-05
-3.92033e-05 -1.93587e-05 6.15873e-05
-5.30927e-06 2.83409e-05 4.80033e-06
0.00013775 5.64229e-05 -6.68413e-05
-8.92524e-05 8.87086e-05 0.000149273
-3.99534e-06 7.06222e-05 4.0957e-05
-2.20105e-05 -4.39322e-06 4.74558e-05
1.20768e-05 -7.3476e-06 9.14807e-06
-1.1237e-05 -6.89164e-06 8.42199e-06