<?xml version="1.0"?>
<VTKFile type="UnstructuredGrid" version="0.1" byte_order="LittleEndian" compressor="vtkZLibDataCompressor">
 <UnstructuredGrid GhostLevel="0">
  <Piece NumberOfPoints="1125" NumberOfCells="1125">
   <PointData>
    <DataArray type="Float64" Name="Elongation" NumberOfComponents="3"/>
8.06173e-06 -1.94048e-06 8.75267e-08
6.26726e-06 -2.35118e-06 5.47951e-08
5.86392e-06 -2.60084e-06 5.29439e-08
4.1491e-06 -4.74362e-06 4.80987e-08
4.36716e-06 -6.40325e-06 5.91774e-08
3.23985e-06 -5.83463e-06 5.40145e-08
2.8053e-06 -6.74457e-06 6.03828e-08
2.41505e-06 -8.50811e-06 9.30252e-08
-5.28384e-06 -1.04759e-05 5.43496e-08
-5.3955e-06 3.36068e-06 -5.31933e-10
5.91439e-06 2.16163e-06 5.71793e-08
1.19165e-06 2.64719e-06 1.86491e-08
1.35e-05 -7.38429e-08 -1.36265e-05
4.10268e-06 2.32032e-06 2.64755e-08
1.6761e-06 3.18892e-06 2.19456e-08
2.56252e-06 1.9145e-07 1.29002e-08
8.84636e-07 -1.90789e-08 3.02221e-09
5.4064e-08 -4.449e-07 5.2131e-10
4.13364e-07 -3.75408e-06 2.23371e-08
-7.132e-06 -7.95288e-06 1.07479e-08
-7.01662e-06 2.91401e-06 1.6855e-07
-3.02407e-09 2.9288e-06 -1.15183e-05
6.36431e-06 1.51858e-06 6.02069e-08
6.53649e-06 -4.68645e-08 -1.20643e-05
3.74061e-07 1.10116e-06 5.07137e-09
-2.42297e-08 6.10353e-06 -1.99554e-05
1.37275e-07 -1.13866e-06 2.50484e-10
1.61705e-06 -5.09651e-06 1.4861e-08
2.21277e-06 -2.57347e-06 1.49103e-08
2.37802e-07 -2.651e-06 9.42068e-09
-1.8618e-06 -4.15562e-06 1.38473e-08
-2.90135e-06 -4.22115e-06 2.19923e-08
-8.9174e-06 -7.02348e-06 8.89253e-09
-1.44439e-05 8.08615e-06 4.11588e-07
-2.13882e-07 -2.25881e-10 -3.72658e-05
6.60474e-06 3.73057e-06 7.44171e-08
1.92404e-05 -2.20263e-07 -1.68593e-05
-1.60355e-06 1.15436e-06 9.08282e-09
2.51144e-06 7.19896e-07 1.16282e-08
-3.18367e-10 -1.62594e-07 7.29207e-06
3.236e-06 -1.93192e-07 1.47195e-08
2.38438e-06 -7.73023e-07 9.71336e-09
1.99909e-07 -1.3424e-07 3.76724e-10
-3.49621e-07 -1.05082e-06 2.68613e-10
-3.91276e-06 -2.92431e-06 1.05557e-08
-7.14548e-06 -4.45362e-06 -1.84169e-08
-2.11074e-05 7.01327e-06 9.74901e-07
-8.1659e-07 5.20532e-10 4.38561e-05
5.67246e-06 3.67451e-06 5.57612e-08
1.81099e-05 -1.83876e-07 -2.19607e-05
-1.61341e-06 8.04341e-07 6.9979e-09
1.75683e-06 2.85036e-06 1.49909e-08
-2.56493e-06 -7.13636e-07 -3.14347e-10
2.09214e-06 1.93538e-06 7.99006e-09
-3.21908e-06 6.85695e-09 1.30142e-06
1.27815e-07 -1.17018e-06 -1.5759e-09
-1.0903e-06 3.92628e-07 -4.97657e-10
6.16817e-06 -2.77633e-08 5.08555e-07
-4.69918e-06 -6.11027e-07 1.41337e-08
-7.59933e-06 -3.79332e-06 -1.69904e-08
-1.79694e-05 1.77096e-06 1.02839e-06
5.74204e-07 -6.48647e-11 -4.38237e-05
-3.14936e-09 -3.59901e-06 1.85191e-05
6.15544e-06 3.33502e-06 5.70764e-08
-2.44338e-06 3.21707e-06 2.5416e-08
1.80416e-06 2.03513e-06 1.26302e-08
-3.85705e-06 -8.65933e-07 5.61199e-09
7.58025e-07 -5.34334e-07 1.13436e-09
-5.993e-07 -1.13297e-07 3.34333e-12
-1.55626e-06 -2.77634e-06 7.50858e-09
1.51009e-06 -1.25041e-06 -4.54194e-09
-7.74984e-06 -6.48091e-06 4.428e-08
-2.20823e-06 2.44634e-06 8.33908e-08
2.82885e-06 3.65483e-06 2.08182e-08
1.05498e-05 -6.36723e-08 -1.38079e-05
-2.16803e-06 -5.35067e-07 4.42737e-09
2.97389e-07 1.32804e-06 4.86882e-09
-1.27558e-06 1.01112e-06 5.62045e-09
-2.42485e-06 1.1816e-06 6.13537e-09
-2.71266e-07 -1.13719e-10 4.79785e-07
-2.64808e-06 3.09736e-07 3.51875e-09
4.25843e-07 -7.4111e-10 1.26529e-05
-2.92176e-06 8.81797e-07 1.12195e-08
-2.74209e-08 -1.34433e-05 9.041e-06
-7.39075e-06 -4.17219e-07 3.63419e-08
-1.17482e-05 -6.53696e-06 4.75633e-08
-3.18907e-07 9.85495e-06 -6.14334e-07
-1.55902e-09 -1.24752e-06 7.34801e-06
-2.59787e-06 1.11791e-06 1.46178e-08
-3.50884e-06 1.57625e-06 2.72336e-08
-5.04041e-06 1.01613e-06 3.28563e-08
-4.86218e-06 -2.69444e-06 2.64211e-08
-4.06822e-06 -4.85755e-06 2.23946e-08
-3.89901e-06 -7.62156e-06 2.73858e-08
-4.09933e-06 -1.75944e-06 1.86497e-08
-3.77917e-09 1.26251e-06 -2.81931e-07
-8.9388e-06 1.92047e-08 -2.75349e-05
-1.23818e-05 -1.07584e-05 8.78454e-08
-7.02455e-06 -3.52505e-06 2.32468e-08
-2.35162e-06 9.3584e-06 -4.66071e-07
-5.13168e-06 -6.75995e-06 -5.89276e-08
-4.36946e-06 -4.75574e-06 -1.65492e-08
-1.10543e-05 -4.52578e-06 6.04157e-08
-1.07466e-05 1.49563e-06 1.21851e-07
-1.01049e-05 -4.79637e-06 7.41436e-08
9.9299e-06 1.51134e-08 3.0747e-05
-1.19026e-05 -9.88644e-06 5.31079e-08
-9.5182e-06 -5.38783e-06 5.49829e-08
-5.75451e-06 -8.17276e-06 2.61052e-08
-7.62853e-06 -5.67775e-06 8.62108e-08
3.16167e-07 1.07343e-05 -9.07548e-07
6.7633e-10 5.70848e-06 -1.98467e-05
5.07717e-06 7.50257e-06 -7.03192e-07
3.0737e-06 -5.52146e-06 8.09169e-08
1.14137e-05 -9.72483e-07 -6.99257e-07
8.86372e-06 -7.09863e-06 -7.92898e-08
3.6004e-06 3.85667e-06 -4.2809e-07
-0.000150068 5.43711e-07 -0.00150328
8.04581e-06 4.81643e-06 -8.16935e-07
0.000103712 -2.56171e-08 0.00149585
9.07691e-06 -8.93052e-06 -5.71802e-08
0.000153477 1.10202e-07 0.00149085
1.10671e-05 -1.92552e-06 -7.00811e-07
-0.000260357 3.31035e-06 -0.00146575
1.98777e-05 -2.57338e-05 -4.43659e-07
5.84631e-06 6.00556e-06 -1.8648e-06
-9.85633e-06 -7.75799e-06 -2.75217e-07
-6.98306e-06 -5.28905e-06 -1.27743e-07
-8.33329e-06 -4.6654e-06 -1.50657e-07
-7.04013e-06 -3.7456e-07 -8.09059e-08
-7.39187e-06 8.06935e-07 -8.26541e-08
-9.04149e-06 5.21425e-07 -1.3562e-07
-9.08016e-06 9.79842e-07 -1.44539e-07
-1.03004e-05 2.36226e-06 -1.97342e-07
-9.17272e-06 6.71253e-06 -3.31371e-07
8.99567e-06 6.30974e-06 -1.17632e-06
-7.51909e-06 -4.50744e-06 -1.2385e-07
-3.42835e-06 -4.58178e-06 -5.46494e-08
-4.13908e-06 -3.48282e-06 -5.02051e-08
-4.57605e-06 -3.59986e-06 -5.85603e-08
-3.39137e-06 -3.7455e-06 -4.2655e-08
-4.00483e-06 -3.89648e-06 -5.36809e-08
2.79867e-06 -4.63355e-09 2.28229e-05
-3.19214e-06 -1.92235e-06 -2.79761e-08
-3.21857e-06 1.96201e-06 -3.47989e-08
-5.19405e-06 5.23561e-06 -1.76226e-07
1.50386e-05 8.37197e-06 -1.53714e-06
1.64053e-10 4.44607e-07 3.48105e-05
-7.05444e-06 -5.63621e-06 -1.25464e-07
-1.79613e-06 -3.81983e-06 -3.24874e-08
-3.9975e-06 -1.2061e-06 -3.06051e-08
-3.63586e-06 2.11591e-07 -2.63351e-08
-5.07842e-06 3.57841e-07 -4.04337e-08
-3.77126e-06 1.43776e-06 -2.89791e-08
-2.50522e-06 2.74249e-06 -2.43816e-08
-1.55238e-06 5.81799e-06 -5.72584e-08
-5.58563e-06 5.61028e-06 -1.78899e-07
2.78509e-05 1.24979e-05 -2.31578e-06
-6.71317e-06 -6.31955e-06 -1.30178e-07
-7.85945e-07 -4.31939e-06 -3.05455e-08
4.41425e-07 -2.9578e-06 -1.53686e-08
-2.37689e-06 -3.07375e-06 -2.38079e-08
-3.622e-06 -2.67054e-06 -3.30993e-08
-2.72263e-06 -1.78213e-06 -1.80465e-08
-1.11421e-06 -1.47804e-06 -7.00856e-09
1.06261e-07 7.31869e-07 2.59918e-10
-1.73535e-06 5.04767e-06 -5.86483e-08
3.05691e-05 1.36238e-05 -2.73377e-06
-4.48099e-06 -5.89513e-06 -8.54099e-08
-8.46522e-07 -4.04547e-06 -2.72994e-08
1.16881e-06 -4.41755e-06 -2.50951e-08
1.4985e-06 -1.78316e-06 -1.1284e-08
-2.91096e-06 1.23458e-08 1.40355e-05
-3.25791e-06 -2.52085e-06 -2.50804e-08
-1.76328e-06 -2.47372e-06 -1.51081e-08
1.18463e-07 -1.36121e-06 -4.07851e-09
4.19066e-06 -1.3139e-06 -1.40089e-08
-2.17348e-06 1.69552e-06 -3.33938e-08
2.86755e-05 7.08618e-06 -2.22221e-06
-3.05377e-06 -6.21558e-06 -7.67524e-08
-1.24101e-06 -5.32996e-06 -4.8787e-08
1.43399e-06 -4.18259e-06 -2.82975e-08
2.22171e-06 -2.50427e-06 -2.06223e-08
-1.87674e-06 -2.70456e-06 -2.16339e-08
-3.32592e-10 1.45094e-06 -7.6082e-06
-1.63316e-06 -3.52267e-07 -5.6132e-09
3.8172e-06 8.34038e-07 -1.6454e-08
8.79776e-06 3.59262e-06 -6.55186e-08
-1.88485e-06 9.29666e-06 -1.39009e-07
3.41317e-05 6.90062e-06 -4.18049e-06
-4.23935e-06 -3.37978e-06 -4.35704e-08
-9.34577e-07 -3.48352e-06 -2.14476e-08
2.89498e-06 -2.03705e-06 -2.03722e-08
2.18815e-06 -1.17104e-06 -1.19028e-08
-7.03603e-07 -4.46606e-08 -1.99861e-09
2.87212e-06 3.25259e-07 -3.11285e-09
4.51159e-06 -8.84031e-07 -2.43621e-08
6.2965e-06 4.87015e-06 -5.82516e-08
2.52577e-06 8.88919e-06 -7.32536e-08
3.05407e-05 1.69519e-05 -5.63796e-06
-3.59456e-06 -3.68948e-06 -4.83272e-08
-1.14402e-06 -4.10096e-06 -4.05572e-08
4.25221e-06 -4.89698e-06 -7.33856e-08
5.69269e-06 -2.7529e-06 -6.33084e-08
4.65379e-06 1.28463e-06 -2.41763e-08
4.64587e-06 2.99078e-06 -1.78924e-08
7.4303e-06 2.31189e-06 -4.8012e-08
4.12087e-06 1.28721e-06 -2.7583e-08
-4.17062e-07 5.75313e-06 -4.80779e-08
3.25972e-05 1.59547e-05 -6.07087e-06
-1.64717e-06 -2.32984e-06 -6.4289e-08
6.3136e-07 -5.71062e-06 -1.34567e-07
9.39596e-06 -5.10473e-06 -1.90681e-07
9.89256e-06 -1.18034e-05 -3.36712e-07
8.94633e-06 -6.33454e-07 -9.0371e-08
-1.79459e-05 -1.80792e-08 -8.40533e-05
7.6896e-06 -9.2302e-06 -2.3208e-07
2.6405e-05 9.09174e-08 4.68287e-05
9.14553e-06 -7.0802e-06 -2.08981e-07
5.69871e-06 -3.64579e-06 -1.00843e-07
5.97364e-06 9.76358e-06 -1.36673e-07
2.85125e-05 1.89306e-05 -6.8797e-06
3.01472e-09 2.43891e-06 -1.79124e-05
6.05617e-06 1.31295e-05 -1.79039e-06
7.28372e-06 1.05691e-05 -1.63832e-06
1.92831e-05 2.82331e-05 -5.1083e-06
1.75757e-05 3.16499e-05 -5.10435e-06
1.40925e-05 3.45714e-05 -4.70911e-06
1.79145e-05 3.9342e-05 -6.15445e-06
1.86872e-05 3.5684e-05 -6.04686e-06
2.2248e-05 4.03304e-05 -7.3846e-06
2.3625e-05 2.0323e-05 -6.90204e-06
9.96705e-06 1.04331e-05 -8.44896e-06
2.85452e-06 1.06332e-05 2.54983e-07
1.75551e-06 8.95262e-06 1.58011e-07
4.11587e-06 7.39564e-06 1.41232e-07
3.86846e-06 6.20271e-06 1.02182e-07
3.8836e-06 5.82419e-06 1.01262e-07
6.6064e-06 5.01135e-06 1.34113e-07
6.54398e-06 4.56053e-06 1.34684e-07
7.84418e-06 2.92565e-06 1.54026e-07
8.96748e-06 -1.07437e-06 3.07972e-07
-5.89313e-07 -3.17052e-06 3.00907e-07
2.10745e-06 5.23646e-06 6.97839e-08
4.17979e-06 -8.32818e-07 3.16165e-08
4.38137e-06 -1.61224e-06 3.72121e-08
4.01595e-06 -3.09431e-06 4.27289e-08
3.47653e-06 -8.05709e-07 2.62116e-08
2.87556e-06 -4.99163e-07 2.01629e-08
3.74484e-06 -1.94248e-06 4.04548e-08
4.17033e-06 9.70027e-07 4.64441e-08
4.12618e-06 -1.03346e-07 1.21598e-07
-2.73478e-06 -3.21363e-06 -1.03263e-07
-1.30772e-06 7.13613e-06 9.67211e-08
3.0473e-06 2.54457e-06 3.11786e-08
5.6167e-07 4.41535e-06 3.5012e-08
1.41306e-06 4.54493e-06 4.38292e-08
2.04103e-06 2.66136e-06 2.51559e-08
3.15582e-06 2.64033e-06 3.06957e-08
1.02356e-06 -6.81353e-07 5.43339e-09
5.62512e-06 -2.42391e-06 8.41425e-08
9.50561e-06 2.1025e-07 2.48751e-07
-1.13898e-06 -6.56511e-06 1.7416e-07
2.25892e-10 7.70146e-07 -3.33191e-05
-1.25124e-06 6.40779e-06 8.10882e-08
4.02067e-06 6.12748e-07 2.70408e-08
1.51386e-07 1.91503e-06 8.62737e-09
7.41447e-07 3.45012e-06 2.20352e-08
-6.3504e-07 3.12648e-06 1.70675e-08
1.77716e-06 -1.19797e-06 1.03643e-08
2.91295e-07 -8.90652e-07 2.44365e-09
3.3625e-06 -5.45538e-07 3.24524e-08
5.7254e-06 -2.53283e-06 1.49911e-07
1.13297e-05 -1.48185e-06 1.42459e-06
1.07953e-09 2.1452e-06 4.28159e-05
-2.80332e-06 4.75835e-06 5.94324e-08
3.4356e-06 9.00462e-07 2.16881e-08
-4.97381e-07 1.7055e-06 7.88719e-09
1.68103e-06 4.27112e-07 8.75579e-09
-1.28034e-06 2.24486e-06 1.38583e-08
1.11638e-06 -2.43242e-07 3.55021e-09
-1.76565e-06 3.37726e-07 1.54626e-09
1.04574e-05 -5.49482e-08 1.07682e-05
3.15048e-07 3.14561e-07 1.52718e-09
8.83471e-06 -1.9563e-06 2.17435e-07
1.14146e-05 -7.19178e-08 1.47786e-06
5.25379e-10 2.6036e-06 -1.96052e-05
-3.51393e-06 3.82991e-06 5.65144e-08
3.51331e-06 1.51972e-06 2.94856e-08
-4.32616e-07 2.99516e-06 1.6389e-08
2.16572e-06 7.91481e-07 1.36848e-08
-1.01431e-05 3.10028e-08 8.36442e-06
-2.11107e-06 2.98622e-06 2.21671e-08
1.03525e-06 -2.4508e-07 3.52097e-09
-2.86107e-06 8.97115e-07 1.2608e-08
-2.17053e-06 -4.77771e-06 2.89969e-08
9.58736e-06 -6.33347e-06 3.12448e-07
6.66474e-06 -2.26014e-07 8.09744e-07
3.89427e-10 5.64567e-06 8.87368e-06
-1.80589e-06 3.22637e-06 3.2274e-08
2.16515e-06 2.95247e-06 2.45128e-08
-6.51458e-07 2.58036e-06 1.55457e-08
6.79751e-08 2.7549e-06 1.52308e-08
3.43733e-07 9.65364e-07 5.32405e-09
-2.24914e-06 -2.77965e-06 7.29986e-09
-2.70764e-06 -3.79696e-06 2.4851e-08
-8.11079e-07 -6.68133e-06 5.7463e-08
9.55719e-06 -5.53702e-06 2.92391e-07
3.68896e-06 -2.48687e-07 4.56026e-07
7.86791e-10 1.34787e-06 4.29276e-05
-2.00545e-08 4.35364e-06 4.84671e-08
1.71533e-06 3.93982e-06 4.51095e-08
3.41071e-07 4.56605e-06 5.65321e-08
-2.55332e-06 5.65735e-06 8.36209e-08
-2.46876e-06 3.36204e-06 4.33623e-08
-2.00508e-06 2.72139e-06 3.16213e-08
-4.69709e-06 4.66955e-06 6.93934e-08
-1.33449e-06 4.30663e-06 4.33106e-08
1.17683e-05 -1.7287e-06 2.89108e-07
1.13431e-05 -1.12181e-07 1.34464e-06
1.31343e-09 3.9432e-06 -4.54192e-05
-9.07127e-07 4.36639e-06 1.37621e-07
-3.7649e-06 4.4993e-06 1.36072e-07
-2.63194e-06 3.43477e-06 8.46501e-08
-5.57374e-06 -8.64598e-07 7.72644e-09
-2.52202e-06 1.58582e-05 3.64351e-07
-2.64348e-06 9.74514e-06 2.20279e-07
-4.22614e-06 9.79565e-06 2.58279e-07
-8.1284e-07 9.11076e-06 2.21067e-07
3.30302e-06 -6.80296e-06 5.75836e-08
9.02053e-06 7.84778e-07 9.51391e-07
-1.78629e-05 -6.56703e-05 -3.54401e-06
-2.45089e-06 1.12968e-06 3.31786e-07
-2.20832e-06 5.28189e-07 1.38444e-07
-6.72513e-07 1.22473e-05 1.47473e-06
7.12986e-07 -1.02017e-06 -1.35709e-07
8.52192e-07 5.6561e-06 6.48596e-07
1.48751e-07 7.17722e-06 8.38578e-07
9.0084e-07 5.73673e-06 6.19034e-07
-1.00037e-05 5.59531e-06 1.56844e-06
-5.43298e-07 -6.50516e-07 5.14031e-07
-2.47607e-09 -1.98982e-06 -1.83937e-05
1.19866e-06 -5.67224e-06 -9.32309e-08
6.66271e-07 -4.25585e-06 -4.94735e-08
-1.24841e-06 -2.45813e-06 -2.67241e-08
-8.44387e-07 -3.01676e-06 -2.86233e-08
-1.4059e-06 -2.30571e-06 -2.60868e-08
-2.21962e-06 -1.72308e-06 -2.62759e-08
-1.85258e-06 -1.0378e-06 -2.03381e-08
-3.47414e-06 -1.41299e-06 -4.96762e-08
-4.82215e-06 2.41011e-07 -1.53175e-07
9.68179e-06 3.24393e-06 7.04457e-06
-4.89312e-10 1.88873e-06 -4.13098e-05
1.65233e-06 -4.30104e-06 -5.15835e-08
-6.59143e-07 -6.24826e-07 -3.70883e-09
-8.86399e-07 5.46061e-08 -3.08641e-09
-1.70519e-06 2.0235e-06 -1.3715e-08
-2.47031e-06 2.48822e-06 -2.41029e-08
-8.79394e-07 3.25925e-06 -1.96525e-08
-2.16013e-06 3.10547e-06 -3.29833e-08
-4.1353e-06 -4.87194e-07 -5.06546e-08
-1.47866e-06 -1.42754e-06 -4.19212e-08
-1.25604e-05 -3.67783e-06 -6.27463e-06
1.74215e-06 -2.86469e-06 -2.70278e-08
8.24045e-07 -2.70112e-06 -1.99668e-08
2.74438e-07 -3.17286e-06 -1.7904e-08
1.29259e-06 -2.57018e-06 -1.59886e-08
-7.77805e-07 -1.47613e-07 -2.90814e-09
-2.35785e-06 -3.93405e-07 -1.37062e-08
8.83867e-07 1.70413e-06 -1.81293e-09
-4.30285e-06 1.77388e-07 -5.56161e-08
-9.20972e-06 -1.68006e-06 -2.38132e-07
-2.16607e-05 -4.78506e-06 -7.14927e-06
1.15968e-06 -1.8046e-06 -1.30557e-08
-3.38081e-07 -1.02735e-06 -3.44112e-09
-2.86674e-06 -1.42622e-07 -1.72799e-08
-1.20126e-06 -4.66974e-08 -3.58824e-09
4.4403e-07 -8.83505e-07 -2.4517e-09
-1.08654e-06 9.13099e-07 -5.83814e-09
-3.6421e-07 1.58667e-06 -4.88803e-09
-2.1928e-06 9.04825e-07 -2.18342e-08
-7.94068e-06 -2.2276e-07 -2.39457e-07
-2.68665e-05 -6.27718e-06 -8.18371e-06
1.44236e-06 -9.00176e-07 -8.46587e-09
-6.40022e-07 -7.18734e-07 -3.17581e-09
-2.71083e-06 1.65931e-07 -1.51619e-08
-8.35812e-07 4.92953e-07 -1.09364e-09
1.24514e-06 -5.78972e-08 -1.37066e-09
6.00607e-07 6.25196e-07 7.92377e-10
7.28369e-07 8.22028e-07 3.67009e-10
-2.22447e-06 8.98735e-07 -1.94103e-08
-1.20757e-05 2.91333e-06 -3.91183e-07
-1.59311e-05 -2.12497e-06 -4.7915e-06
2.75681e-06 -3.46963e-05 -0.00198157
-1.57096e-06 5.15135e-10 -4.24254e-05
1.83973e-06 -1.84517e-06 -2.01439e-08
-1.48863e-07 -2.77422e-07 -1.16479e-09
-2.69191e-06 -5.9055e-07 -1.65194e-08
-2.18442e-06 -3.09429e-08 -9.58258e-09
2.10069e-06 -3.12305e-07 -5.24811e-09
1.9879e-06 -2.01403e-07 -2.65165e-10
-2.19334e-07 -3.38993e-07 -1.02397e-09
-1.83977e-06 1.28945e-06 -1.54435e-08
-1.09125e-05 1.96961e-06 -3.7346e-07
-2.0732e-05 -2.4077e-06 -7.46488e-06
-8.8578e-07 2.60103e-10 4.18152e-05
2.41047e-06 -9.22451e-07 -1.56389e-08
8.62509e-07 -2.6726e-06 -1.84619e-08
-2.09635e-06 -2.45979e-06 -2.29617e-08
-1.01415e-06 -3.36728e-06 -2.56325e-08
2.09449e-06 -1.14572e-06 -9.25055e-09
8.30772e-07 -5.84718e-07 -2.15478e-09
1.03259e-06 2.46824e-06 -5.12196e-09
-1.69726e-06 2.3828e-06 -2.01164e-08
-1.47493e-05 5.36964e-07 -5.40422e-07
-1.64792e-05 -6.978e-06 -6.24253e-06
1.37635e-09 1.13381e-06 -2.97955e-05
3.34376e-06 1.78863e-10 -3.92313e-05
2.72114e-06 -2.48613e-06 -3.57051e-08
1.15861e-06 -2.86986e-06 -3.07241e-08
-4.84608e-07 -1.15579e-06 -1.23522e-08
-1.06791e-06 -3.55706e-06 -4.52165e-08
1.35808e-07 -2.79664e-06 -2.61927e-08
-8.65866e-07 -3.50653e-06 -3.48939e-08
-2.06684e-07 -4.76148e-06 -4.81652e-08
-2.71686e-06 -3.49984e-06 -3.95933e-08
-1.56571e-05 -5.4472e-06 -6.60199e-07
-1.98967e-05 -5.70019e-06 -7.4005e-06
-1.13987e-09 -1.01045e-06 4.65681e-05
6.05499e-07 -3.17407e-10 -2.81535e-05
3.78666e-06 -4.3322e-06 -1.68832e-07
2.87745e-06 -1.69001e-06 -5.58208e-08
-1.49932e-06 1.0098e-06 1.85979e-08
3.69011e-07 4.67118e-07 1.08295e-08
5.58203e-07 -1.01925e-05 -2.09382e-07
1.37033e-06 -5.61888e-06 -1.15053e-07
1.01233e-06 -5.01681e-06 -1.09618e-07
-3.48495e-05 6.81165e-08 -8.45448e-05
-2.71838e-06 -6.4182e-06 -1.63374e-07
-1.45858e-05 -1.47644e-05 -1.58872e-06
-1.5694e-05 -7.65633e-06 -6.25142e-06
-1.9153e-09 -4.0184e-06 6.66704e-06
-3.02321e-05 -0.000636475 -0.000464595
-3.62262e-06 -8.74974e-06 -4.73894e-06
-9.13675e-06 -1.96242e-05 -8.02937e-06
-8.12169e-06 -1.38317e-05 -5.68937e-06
-6.72743e-06 -2.86077e-05 -1.01703e-05
-8.31836e-06 -1.96712e-05 -7.31668e-06
-8.28261e-06 -1.90795e-05 -7.03417e-06
-1.02468e-05 -2.0014e-05 -7.50045e-06
-8.31262e-06 -1.60983e-05 -5.03797e-06
-3.00882e-09 -1.67218e-06 9.24243e-06
-3.20203e-06 -3.39905e-09 2.64662e-05
-2.72456e-06 1.96988e-09 5.85091e-05
-1.79887e-06 -2.35285e-07 2.03629e-09
-8.65464e-07 -4.117e-07 -9.02266e-10
-5.35724e-07 -1.14024e-06 -3.50072e-09
-5.84928e-07 -2.99837e-07 -1.62827e-09
-2.59304e-07 -8.922e-07 -3.39021e-09
-8.587e-07 -5.96876e-07 -2.78098e-09
-6.79983e-07 -9.76816e-07 -4.06703e-09
-1.02816e-06 4.70199e-09 -5.05819e-09
1.75596e-06 1.09574e-06 5.69059e-08
1.77342e-10 2.42152e-06 4.30782e-05
-1.72639e-06 1.03146e-06 1.08741e-08
-1.49667e-06 1.55981e-06 1.00777e-08
-1.72021e-06 1.89523e-06 1.25973e-08
-1.26014e-07 1.54612e-06 5.77842e-09
-6.63055e-07 1.34497e-06 4.11312e-09
-1.0774e-07 6.06288e-07 6.95064e-10
2.9491e-07 1.09564e-06 3.87974e-09
-1.36442e-07 1.82158e-08 -7.24213e-10
3.47791e-06 7.17419e-07 7.64856e-08
6.12336e-06 2.17334e-06 5.08476e-06
5.87587e-06 -1.23448e-08 1.65439e-05
-2.13909e-07 -7.02145e-07 -1.29415e-09
-1.88325e-06 7.22489e-07 9.02093e-09
8.40629e-07 7.30068e-07 1.51642e-09
-2.19375e-06 -1.29751e-06 1.12286e-09
9.75264e-06 8.82593e-09 7.52348e-06
3.49383e-07 -1.84731e-06 2.67778e-09
3.01494e-07 -1.9462e-06 4.00624e-09
6.50151e-07 -8.08473e-08 3.33393e-09
-2.10303e-07 6.944e-07 -1.21269e-10
6.31188e-06 2.08104e-06 1.67791e-07
1.07113e-05 4.17624e-06 4.45451e-06
1.20854e-10 3.80165e-07 -4.14312e-05
-1.00998e-07 -1.57737e-06 1.64178e-10
-1.36367e-06 9.74305e-07 4.79602e-09
-1.33092e-07 1.04314e-07 6.67695e-12
-6.96507e-07 -5.99214e-07 -7.25495e-11
1.15508e-06 -6.87954e-07 3.92604e-09
-5.53789e-06 -4.04174e-10 1.83654e-07
4.79175e-07 1.52597e-06 7.73733e-09
8.49418e-07 9.74634e-07 6.93264e-09
-1.07257e-06 7.88563e-07 -4.40125e-09
8.4515e-06 1.82227e-06 2.44097e-07
7.49252e-07 1.05855e-06 2.65057e-07
3.81739e-07 -9.62085e-07 -7.85197e-10
-8.03378e-07 9.53221e-07 3.27283e-09
-1.15365e-07 -9.42542e-07 -1.14918e-09
-2.38363e-07 1.74716e-07 5.75712e-10
1.00994e-06 -6.6411e-07 2.93442e-09
-3.93692e-07 1.03572e-06 3.09359e-09
1.91641e-06 -1.49337e-07 1.07564e-08
3.9119e-07 3.59957e-07 2.98441e-09
8.42673e-06 -5.0897e-07 2.67274e-07
1.44754e-05 4.36962e-07 4.29181e-06
1.74456e-06 -3.65941e-10 -2.8465e-05
7.2456e-07 -4.65855e-07 -9.40501e-10
-1.21747e-06 2.32067e-07 1.74151e-09
-6.20924e-07 -2.22351e-07 -2.84623e-10
1.14551e-07 2.70447e-07 8.42058e-10
1.0525e-06 -3.69921e-07 3.75236e-09
-1.789e-06 1.27622e-06 5.20063e-09
2.2437e-06 5.19376e-07 1.45947e-08
3.0994e-06 1.82877e-06 2.74305e-08
6.34278e-06 4.0469e-06 2.19761e-07
8.50023e-06 1.63998e-06 2.70543e-06
-4.00685e-05 -0.000208849 -0.00144216
1.63676e-07 2.19269e-11 -1.19761e-05
5.70935e-08 -4.7251e-07 -1.20516e-09
-1.56788e-07 -6.21933e-08 -1.3635e-10
-2.58159e-07 -3.49964e-07 -8.44849e-10
5.38754e-08 -3.25976e-07 -3.86273e-10
-3.23628e-08 -8.53074e-07 -6.31899e-10
1.96663e-06 1.68095e-06 1.23248e-08
-3.74786e-07 -1.67302e-07 -1.36302e-09
1.28782e-06 3.1051e-06 1.75242e-08
8.42601e-06 3.64727e-06 2.95402e-07
1.81585e-05 4.13258e-07 5.84117e-06
1.15728e-05 -1.34515e-05 0.00083709
-6.62352e-10 1.49923e-06 2.39591e-05
4.61708e-07 7.82407e-08 1.06636e-09
3.37447e-07 4.01459e-07 2.8781e-09
-1.72815e-06 -1.10455e-06 -8.6737e-09
1.54935e-06 4.63077e-08 7.81819e-09
2.60949e-06 1.18684e-07 2.42028e-09
2.33068e-06 1.85623e-06 1.5989e-08
2.78102e-06 1.4647e-06 1.40332e-08
4.17427e-06 6.10208e-07 3.75763e-08
4.582e-06 6.60305e-06 2.57731e-07
-4.04855e-06 -1.15177e-06 -1.40386e-06
-4.9291e-06 -5.9794e-06 -0.00089688
-1.45071e-09 1.00539e-06 -4.59028e-05
-3.0519e-07 2.4166e-06 8.69723e-08
2.30418e-06 1.16454e-06 3.88302e-08
6.17331e-06 -9.15767e-07 7.50761e-09
5.76931e-06 4.69533e-06 1.40819e-07
1.38598e-06 4.23146e-06 9.49888e-08
1.20999e-06 3.67168e-06 8.11399e-08
2.07849e-06 2.49876e-06 5.94062e-08
3.63477e-06 4.41458e-06 1.35876e-07
3.36954e-06 1.12954e-05 7.70728e-07
6.79507e-07 -4.24001e-07 1.95705e-07
0.000200061 -0.00206019 0.0012541
2.44748e-06 5.50279e-06 2.48776e-06
1.65448e-06 7.33193e-06 3.02765e-06
1.072e-06 2.78476e-06 9.84827e-07
-3.61302e-07 1.27937e-06 3.92015e-07
-1.933e-07 1.29351e-06 4.1167e-07
-4.67453e-07 1.10181e-06 3.19087e-07
6.55879e-06 2.56106e-06 1.7644e-06
-4.43768e-09 2.78574e-06 -1.78077e-05
-2.06782e-06 -3.30494e-06 1.8225e-08
-1.41373e-06 -1.94512e-06 4.27614e-09
-2.21752e-06 -1.79237e-06 7.80096e-09
-1.80836e-06 -4.05427e-07 3.61952e-09
-1.84015e-06 -7.30226e-07 1.78423e-09
-2.55074e-06 -1.68355e-08 7.86268e-09
-2.22552e-06 -2.04146e-07 1.46833e-09
3.21243e-06 -5.7474e-08 -4.0376e-09
-7.83664e-07 3.07961e-06 1.37062e-08
-8.7025e-07 -2.37571e-06 5.10423e-09
-1.23992e-06 -4.77561e-07 2.17201e-09
-1.68885e-06 1.9816e-07 4.6319e-09
-1.44583e-06 9.30591e-07 4.97371e-09
-1.64333e-06 9.67784e-07 5.71484e-09
-1.00419e-06 1.03186e-06 2.5366e-09
-9.74273e-07 1.40112e-06 3.69165e-09
-1.40651e-06 7.82639e-07 -9.08766e-10
7.22225e-06 6.1643e-07 1.25736e-07
-2.71616e-06 -7.23544e-07 -1.63441e-06
-8.45867e-07 -2.12013e-06 6.7681e-09
5.07449e-08 -1.69606e-06 2.69461e-09
-7.43019e-07 -2.16885e-06 8.0567e-10
-2.3774e-07 2.25676e-07 -2.1166e-10
-1.66576e-06 -6.88241e-07 2.53969e-09
-1.50529e-06 -1.72599e-07 -2.37519e-12
1.29005e-07 1.85587e-06 9.8446e-09
-1.15673e-06 1.63535e-06 3.66514e-09
-1.65712e-06 2.55576e-06 -2.24584e-08
-4.05049e-06 3.43202e-07 -1.22254e-06
-9.04937e-07 -2.50436e-06 1.14499e-08
-2.4368e-07 -9.05205e-07 1.26188e-09
-1.29595e-06 -4.30984e-07 2.7116e-09
-1.9028e-06 -8.17567e-07 4.6851e-09
-2.14796e-07 -8.23647e-07 8.96318e-10
-9.20857e-07 2.9463e-07 -4.31815e-10
-2.10393e-07 6.11299e-07 6.60623e-10
-2.30167e-06 9.86453e-09 -1.13193e-08
1.16806e-05 2.62746e-06 2.72818e-07
1.79625e-07 2.53568e-05 6.61111e-05
-2.19471e-06 8.61177e-07 -5.12193e-07
-1.9573e-07 -1.82228e-06 4.35543e-09
-3.01827e-07 -5.69023e-07 1.81855e-10
-1.35459e-06 -1.18733e-06 3.62601e-09
8.85221e-07 -8.74951e-07 1.51199e-09
2.93827e-07 -1.2516e-06 2.74042e-09
2.4536e-07 -1.30301e-07 6.58627e-10
1.09209e-06 -3.05547e-07 5.58394e-09
3.48649e-07 3.52309e-07 2.41957e-09
-3.72195e-06 1.50125e-06 -7.92145e-08
-2.15098e-08 -5.2585e-06 -2.9537e-05
-8.10494e-06 3.4899e-08 -1.83528e-06
8.27966e-07 2.87655e-10 -3.25225e-05
1.02283e-06 -2.05478e-06 6.85107e-09
-4.03149e-07 -1.34326e-06 6.23231e-10
-1.2793e-06 -1.30961e-06 3.53688e-09
5.65686e-08 -7.35359e-07 2.88442e-10
9.58141e-08 -3.81822e-07 4.92226e-11
-7.244e-07 -2.10209e-07 -1.76207e-09
1.95519e-06 -1.97336e-07 1.32659e-08
4.66346e-06 1.78074e-06 4.46749e-08
1.04086e-06 5.98914e-06 8.38905e-08
-5.32089e-07 3.56261e-05 -8.85628e-05
-1.07831e-07 4.23114e-07 -9.59585e-09
5.31319e-07 -1.49514e-06 1.70791e-09
3.59034e-07 -1.29348e-06 1.51504e-09
-5.29553e-07 -1.50534e-06 6.00978e-10
-3.52059e-07 -1.70162e-06 1.85254e-09
9.22966e-07 -1.20434e-06 1.93978e-09
3.08419e-06 6.72953e-07 1.18291e-08
1.24484e-06 -3.56452e-07 5.66954e-09
2.12477e-06 4.99378e-06 4.70074e-08
-1.97644e-06 5.65191e-06 1.63459e-08
9.76818e-07 7.75806e-08 2.18011e-07
-1.05911e-06 -3.057e-11 -4.7705e-05
8.75001e-07 -1.0678e-06 -1.17797e-09
6.10931e-07 -8.05244e-07 -6.55636e-10
6.60438e-07 -1.47193e-06 -2.30228e-09
3.196e-07 -2.16457e-06 -4.04675e-09
4.23965e-06 -3.93758e-07 1.85271e-08
2.58453e-06 1.7206e-06 1.65699e-08
3.98859e-06 -3.75835e-07 1.98222e-08
3.85733e-06 5.76705e-07 4.61421e-08
-6.12937e-06 3.81021e-06 -5.17479e-08
1.46292e-05 2.12426e-06 3.36535e-06
-4.21807e-09 -8.93552e-06 3.86287e-05
4.0121e-06 -2.27679e-09 -4.93128e-05
2.38241e-06 9.05669e-07 5.48484e-08
2.80088e-06 -6.78779e-07 4.92089e-09
7.93635e-06 4.19241e-06 1.58203e-07
1.02053e-05 6.26311e-06 2.30092e-07
4.15337e-06 -2.60447e-06 -2.57467e-08
4.71402e-06 5.3997e-07 5.27722e-08
4.87573e-06 5.60936e-07 5.63512e-08
3.53107e-06 1.41492e-06 7.19153e-08
-5.68716e-06 -5.54644e-06 -1.07898e-07
-2.34075e-06 2.57352e-07 -5.18486e-07
-2.11919e-07 3.51839e-05 2.24744e-05
-8.29789e-07 -2.93952e-06 -9.96752e-07
-1.80668e-06 -9.39071e-07 -3.62728e-07
-4.80708e-08 -1.60436e-06 -4.14e-07
1.42074e-07 -1.89692e-06 -4.38147e-07
-8.49679e-08 -2.17649e-06 -5.20228e-07
-3.20689e-08 -1.11864e-06 -2.79242e-07
1.00176e-06 -1.60795e-06 -2.8872e-07
2.39893e-09 6.6491e-06 -1.46196e-06
1.96265e-06 3.80658e-06 -4.61548e-08
1.39542e-06 2.52518e-06 -1.52657e-08
2.3163e-06 1.93785e-06 -1.80066e-08
1.87191e-06 7.89215e-07 -7.58214e-09
1.98977e-06 9.53867e-07 -6.94919e-09
2.6546e-06 2.35326e-07 -1.55862e-08
2.70222e-06 2.2543e-07 -1.27711e-08
2.66004e-06 -6.51588e-07 -1.02897e-08
2.20668e-06 -2.84195e-06 1.02044e-08
8.84823e-07 2.89771e-06 -1.82938e-08
1.02788e-06 1.27023e-06 -6.01835e-09
1.22602e-06 8.64937e-07 -4.40596e-09
1.63842e-06 1.17168e-08 -6.1271e-09
1.5795e-06 4.05278e-08 -4.55547e-09
1.31037e-06 -1.52178e-07 -2.11679e-09
1.4958e-06 -5.82409e-07 -2.91262e-09
8.47769e-07 -1.05214e-06 -2.92189e-09
-8.18239e-06 -1.0246e-06 -1.36467e-07
7.30965e-07 -1.17309e-07 2.64491e-07
6.75926e-07 2.60783e-06 -1.77508e-08
-2.55843e-07 2.11684e-06 -9.95058e-09
7.59461e-07 1.43248e-06 -2.17574e-09
1.68513e-07 3.11483e-07 -5.24193e-10
1.67514e-06 -1.58154e-07 -6.01188e-09
1.54178e-06 -5.72688e-07 -4.30346e-09
7.67414e-07 -1.52516e-06 -6.99094e-09
9.03361e-07 -1.83854e-06 -1.02276e-08
1.09617e-05 -2.3374e-06 1.66804e-07
2.22156e-06 -2.55762e-07 4.61131e-07
7.13973e-07 2.59913e-06 -1.95609e-08
3.3619e-07 1.15915e-06 -4.01877e-09
6.20932e-07 9.91545e-07 -3.47267e-09
1.13719e-06 1.21299e-06 -4.42e-09
7.76282e-07 7.63383e-07 -2.63715e-09
9.42911e-07 2.4856e-07 -2.51173e-10
4.45218e-07 -2.7239e-08 3.68102e-10
1.95121e-06 6.45868e-07 9.22512e-09
3.38822e-06 -1.1484e-06 4.95085e-08
4.59187e-06 -1.08757e-06 7.62747e-07
-1.70805e-08 2.10867e-06 -1.13734e-08
4.53749e-07 1.11938e-06 -3.48332e-09
1.80572e-07 1.26549e-06 -3.10972e-09
-9.0042e-07 8.5263e-07 -3.45656e-09
2.79742e-07 9.6505e-07 -2.562e-09
1.62753e-08 1.42834e-07 -1.1966e-10
-2.56258e-07 -2.1973e-07 -8.53419e-10
-2.06723e-06 -2.36447e-07 -1.76521e-08
-9.99271e-06 -3.50725e-06 -1.8386e-07
6.05346e-06 -6.17306e-08 9.52324e-07
-8.59724e-06 -6.24342e-09 3.09606e-05
-8.11972e-07 2.30465e-06 -1.53499e-08
2.81005e-07 1.76629e-06 -6.93688e-09
-2.39781e-09 1.6357e-06 -4.1861e-09
-6.73631e-07 1.06189e-06 -4.54422e-09
4.95678e-07 7.24105e-07 -1.25922e-09
-1.39552e-07 8.25942e-07 -7.53067e-10
-9.56129e-07 2.31178e-07 -5.29237e-09
-4.58854e-06 -1.75809e-06 -5.84501e-08
2.64077e-06 -4.53631e-06 -1.25149e-08
-1.79567e-07 1.79316e-05 -4.68758e-05
3.25225e-06 1.08526e-07 4.90044e-07
-5.52257e-07 1.40293e-06 -4.30191e-09
4.11067e-07 1.08034e-06 -1.37891e-09
-3.86608e-07 1.26504e-06 -2.0751e-09
-1.37562e-07 1.17174e-06 -1.0346e-09
-1.05164e-06 6.32698e-07 -2.43908e-10
-2.41327e-06 -1.07105e-06 -9.0415e-09
-4.1549e-06 -7.60634e-07 -3.47452e-08
-2.97353e-06 -4.55995e-06 -6.99285e-08
6.08579e-06 -4.75846e-06 3.19833e-09
3.61742e-06 -1.15207e-06 4.24327e-07
8.87507e-06 -6.14489e-10 2.85634e-05
-5.95986e-07 1.51721e-06 -3.06059e-10
2.65534e-07 1.25351e-06 1.71638e-09
-1.08086e-05 -1.29004e-06 -6.16408e-08
-2.18108e-06 1.66194e-06 -1.00903e-08
-4.0443e-06 -1.73053e-07 -3.46134e-08
-2.50821e-06 -2.05112e-06 -2.82822e-08
-2.48349e-06 1.27399e-06 -1.79003e-08
-2.74703e-06 -1.29279e-06 -4.82676e-08
4.51937e-06 -1.20928e-06 3.65104e-08
7.70428e-06 -2.7615e-06 6.88812e-07
6.10389e-07 -1.36061e-09 3.5521e-05
-2.78759e-06 -5.58197e-07 -5.72709e-08
-2.54108e-06 8.62918e-07 -7.06189e-09
2.52695e-06 -8.11832e-06 -1.2188e-07
2.8038e-05 0.000322171 3.4136e-05
-3.45965e-06 4.04789e-06 4.36557e-08
3.08005e-05 0.000349557 2.51014e-05
-4.6731e-06 5.37119e-06 4.57666e-08
-5.50532e-06 2.06377e-06 -3.4607e-08
-4.90051e-06 1.13464e-06 -4.85909e-08
-2.85594e-06 6.41785e-07 -2.9636e-08
2.1657e-06 2.14412e-06 -2.36734e-08
2.69542e-06 -1.30551e-06 2.28587e-07
-4.20612e-09 -5.11139e-06 -2.4665e-05
8.53706e-06 3.55696e-05 9.8951e-06
2.11289e-07 2.52976e-06 5.29088e-07
1.94137e-06 5.49665e-06 6.15704e-07
3.20549e-06 5.16378e-06 7.94338e-07
-1.05277e-06 4.72056e-06 5.09002e-07
-1.53143e-06 2.90334e-06 2.55471e-07
-4.53526e-07 5.1944e-06 6.13063e-07
-0.000478396 -2.60586e-06 0.000513857
-9.10118e-07 2.08741e-06 2.36199e-07
-3.32691e-09 1.09867e-06 -1.07246e-05
-1.17617e-06 -2.79079e-06 4.20153e-08
-8.86861e-07 -2.23947e-06 1.75727e-08
-1.43631e-06 -1.57966e-06 1.35907e-08
-1.18565e-06 -9.68775e-07 5.85512e-09
-1.33095e-06 -9.73963e-07 5.81151e-09
-1.79702e-06 -2.19908e-07 1.1733e-08
-1.90186e-06 -2.21302e-07 1.11812e-08
-1.73184e-06 7.55147e-07 1.09326e-08
-1.88232e-06 1.75415e-06 -1.65836e-08
-8.97524e-07 -2.07669e-06 1.74621e-08
-8.45052e-07 -7.35818e-07 4.99739e-09
-8.57177e-07 -6.05482e-07 3.74472e-09
-1.18556e-06 4.2463e-08 5.63312e-09
-1.18599e-06 2.46822e-08 4.61112e-09
-8.3134e-07 3.43717e-07 2.06117e-09
-1.13138e-06 6.5758e-07 5.14171e-09
-7.38758e-07 7.99472e-07 3.40691e-09
-6.78666e-06 1.60968e-06 -1.20064e-07
-1.36531e-06 -4.66914e-07 -2.52275e-07
-3.2729e-07 -2.07752e-06 1.79322e-08
-1.48364e-07 -1.45526e-06 7.51485e-09
-1.10611e-07 -1.019e-06 2.41639e-09
-6.65773e-07 -4.24215e-07 2.17229e-09
-7.50554e-07 1.82948e-07 1.99515e-09