<?xml version="1.0"?>
<VTKFile type="UnstructuredGrid" version="0.1" byte_order="LittleEndian" compressor="vtkZLibDataCompressor">
 <UnstructuredGrid GhostLevel="0">
  <Piece NumberOfPoints="1076" NumberOfCells="1076">
   <PointData>
    <DataArray type="Float64" Name="Elongation" NumberOfComponents="3"/>
-1.2122e-05 6.92782e-06 -4.39203e-05
-2.48531e-05 0.000158204 0.000149853
-0.000118473 -0.000103766 0.000112679
-0.000394818 -0.000195542 0.000415201
1.13477e-05 -1.48107e-05 -1.52181e-05
9.97038e-06 -2.39826e-05 -1.07163e-05
-0.00125783 -0.00114046 -0.00164821
3.6373e-05 5.22794e-05 -6.52637e-05
-0.000506612 0.00044485 -0.00032661
1.4848e-05 1.43006e-05 -3.37821e-05
-1.02836e-05 -0.000254208 -0.000280342
0.00025284 0.000128886 -0.000603006
2.83674e-05 1.40972e-05 1.95143e-05
2.88647e-05 -2.1018e-06 1.27916e-05
3.95495e-05 -7.7671e-05 -0.000131585
-5.88186e-06 -0.000105292 8.43855e-05
-1.46664e-05 8.47424e-05 7.76569e-05
2.84004e-06 4.21253e-05 1.0032e-05
8.91558e-07 2.24098e-06 1.97674e-06
-1.52427e-05 3.14877e-05 2.72514e-05
5.39025e-06 -6.16828e-05 5.61451e-05
4.82889e-05 1.27758e-05 -3.76271e-05
8.33442e-05 -2.37236e-05 -8.8254e-05
-4.05659e-05 -2.37809e-05 1.24153e-05
3.70039e-05 1.4164e-05 5.97411e-05
0.000110488 -2.29222e-05 -7.12862e-05
-6.52582e-05 1.22647e-05 -6.58336e-05
3.93821e-05 -2.0244e-06 5.90185e-05
5.71077e-05 -2.74109e-05 -2.576e-05
-7.96031e-05 3.73716e-05 8.07792e-05
-8.24288e-06 8.08029e-06 -1.60232e-06
-2.77019e-05 -1.05536e-05 -3.21524e-05
-0.000545373 -7.5946e-05 -0.000488654
-2.96415e-05 -1.05303e-05 2.80036e-05
3.48217e-05 -1.8916e-05 1.54656e-05
3.69449e-05 -5.44067e-06 -2.49812e-05
-4.42157e-05 4.01937e-06 -3.34856e-05
6.43985e-05 1.19606e-05 -6.01179e-05
-1.30546e-05 -3.91171e-05 2.29104e-05
-9.55726e-08 4.918e-05 4.63417e-05
1.59492e-05 7.77045e-05 -6.87584e-05
1.00645e-05 -6.25927e-05 -5.87773e-05
-1.63315e-05 -2.84006e-05 -3.51414e-05
3.60621e-05 1.00042e-05 2.92019e-05
2.01196e-05 -0.000127258 0.000106534
-2.9154e-06 0.000195079 0.000202605
-5.17037e-06 -1.45922e-06 -2.6884e-06
-4.70004e-05 1.85404e-05 -1.10177e-05
2.31493e-05 8.18849e-06 -2.29374e-05
-0.000178661 -0.000217317 0.000359289
9.16301e-07 5.27102e-06 4.73255e-06
0.000133735 3.01487e-05 0.000138176
-3.33246e-05 -5.98942e-05 7.2643e-05
-2.80563e-05 -6.09726e-05 2.48112e-05
1.28271e-05 6.10502e-05 5.42451e-05
-6.61116e-07 3.48784e-08 1.63825e-07
1.90849e-05 1.70886e-05 8.69143e-07
-4.44023e-05 4.18711e-05 -3.18312e-06
4.05327e-05 3.76738e-05 -3.62876e-07
1.03177e-05 2.75203e-05 -9.78043e-06
-2.41827e-05 5.31865e-06 -1.51958e-05
2.96662e-05 -0.000112406 -1.54217e-05
6.51631e-06 -0.000181956 -0.000459382
-6.50578e-05 0.000114479 7.24415e-05
-3.58554e-05 -8.44125e-05 -0.000153015
4.33209e-05 9.22405e-05 -6.31422e-05
-6.51089e-05 2.66011e-05 7.53803e-05
-5.93817e-05 4.08588e-07 -4.29131e-05
-1.60949e-05 3.17916e-05 1.02759e-05
-0.000139413 -2.56424e-05 -8.51609e-05
-2.90505e-06 1.02585e-07 -6.07819e-05
-1.28391e-05 2.86117e-05 -8.74442e-06
5.97276e-08 -7.88899e-07 6.56369e-07
2.73285e-05 4.63917e-05 5.94049e-05
0.000176852 8.90318e-05 -1.52519e-05
0.000367925 0.000114505 -0.000241307
-3.48223e-05 6.82791e-05 7.87586e-05
0.000208185 -6.95082e-05 0.000128706
-4.58798e-05 -9.91497e-06 2.05456e-05
-7.65421e-05 8.15523e-05 -6.70785e-05
-2.58099e-06 2.24707e-06 -1.36488e-05
-1.38408e-05 -3.74475e-06 -4.35383e-06
7.81838e-05 2.81553e-05 -7.05095e-05
-2.1045e-05 0.000106584 7.71948e-05
-1.30933e-05 -4.17308e-07 1.55096e-05
-2.83152e-05 -2.81112e-05 -3.36136e-06
8.11106e-05 -9.3603e-06 7.66003e-05
-0.000178583 -0.000558478 0.00040913
9.69497e-06 7.22711e-05 5.56504e-05
0.000117651 3.56371e-06 0.000145878
-0.00022882 -0.00026129 -0.000557592
-5.92875e-05 -4.89924e-05 0.000661832
-5.71884e-05 -2.00012e-06 1.02317e-05
0.000179006 -0.000133313 -0.000110809
1.97979e-05 5.51881e-05 -3.75032e-05
-9.27903e-05 -1.2298e-05 -2.02216e-05
1.89649e-05 -2.9404e-05 -8.37082e-05
-0.000775554 0.000452026 -0.00105332
-0.000197176 -0.000353292 0.000443525
-7.7116e-06 1.20202e-05 1.01587e-05
0.000215576 -0.000206789 -0.000168968
-0.000265946 0.000114007 0.000871744
1.16883e-05 -0.000386148 -0.000679395
0.000962206 0.000482276 -0.000491374
0.000379812 7.76468e-05 0.000117887
-1.24032e-05 -1.34969e-05 6.05637e-07
1.21751e-05 2.76163e-06 7.16763e-06
1.91595e-05 1.94288e-05 2.86285e-05
0.000238019 -8.26191e-05 -0.000232239
5.69256e-06 7.55877e-06 -6.87607e-07
1.96961e-06 -4.91537e-07 6.91989e-07
-8.71401e-06 1.04243e-06 2.25014e-05
0.000306104 0.000978517 -0.000873132
-0.000376716 -0.000166181 7.65248e-05
2.4842e-05 3.46849e-05 -8.35228e-06
2.95382e-05 8.95641e-06 2.20724e-05
-1.87558e-05 1.66971e-05 -0.000102167
-0.000194294 -0.00137303 0.00113872
-0.000873163 0.00185212 -0.00231921
8.22432e-05 -0.000237758 0.000149691
-0.00175515 -3.01647e-05 0.000373789
-1.54371e-05 2.34804e-05 3.64304e-05
-3.44688e-05 0.000101118 1.87987e-05
6.12536e-05 -2.24332e-05 1.29925e-05
1.47408e-05 -0.000271425 -0.00120396
-0.000595963 0.000276336 0.00221373
-0.000263706 0.000416415 -0.000764656
-0.000148235 5.85243e-05 -0.000213546
-0.000390544 -0.000100637 0.000270936
-0.000338661 0.000108288 -0.000458286
-2.50368e-06 1.00301e-05 -1.43963e-05
-4.30818e-06 -6.02067e-06 -9.59679e-06
5.55662e-05 0.000127617 -0.000167557
-1.36458e-05 5.26521e-05 -0.000116775
8.03436e-06 -9.32504e-06 -7.01237e-06
0.000302024 0.000880004 -0.000289819
-0.000216405 0.000168042 -0.000410951
5.857e-05 8.3652e-06 -8.68034e-05
0.000133043 -5.20705e-05 1.08334e-05
-1.33618e-07 6.5442e-08 2.42765e-07
3.82332e-06 -1.61566e-05 2.03011e-05
-2.81094e-05 0.000149557 -0.000110405
4.71268e-06 -1.83135e-05 -3.00772e-05
-6.86068e-05 -4.88137e-05 -5.33675e-05
-1.18506e-05 8.63664e-06 -7.34567e-06
-4.89081e-06 1.39919e-05 -1.13636e-05
9.9291e-06 2.0494e-05 3.76916e-05
-5.5229e-06 4.76911e-05 2.79302e-05
5.54976e-06 3.28996e-06 -1.1911e-05
2.93299e-05 -3.64705e-05 1.70275e-05
0.000265761 4.20472e-05 0.000190195
-5.86158e-05 -2.77383e-05 2.22631e-05
-0.000813827 -4.36614e-05 -0.000237679
-4.87565e-06 6.25198e-05 -5.6666e-05
3.33733e-05 3.754e-05 6.09629e-06
1.13155e-05 1.89807e-05 -1.66722e-05
-0.000273412 0.00030212 7.66877e-05
-8.22168e-06 -0.000375395 -0.000425015
7.2209e-06 -4.00284e-06 1.05849e-05
-0.000149953 0.000231994 -4.00744e-05
-4.41003e-05 4.94863e-06 4.72787e-05
7.00606e-06 -1.07793e-05 1.51075e-05
4.07681e-05 7.76244e-05 0.000116041
-7.72484e-06 -3.65575e-05 4.52532e-05
3.02171e-05 -7.67818e-06 1.79462e-05
5.17614e-05 -2.52227e-05 0.000296613
3.22601e-05 2.87776e-05 -7.47228e-06
-3.11541e-05 5.89439e-06 5.41353e-05
6.97693e-05 -4.905e-05 8.51079e-05
-1.91121e-05 3.52042e-06 -2.25804e-06
-9.47705e-06 0.000263075 0.000128394
0.000118304 4.32367e-05 0.00019328
-8.35421e-06 -8.4045e-05 -9.18107e-07
0.000184384 -6.66786e-05 -7.24003e-05
-3.04257e-06 -4.48612e-07 1.96232e-06
0.00053894 0.000182099 0.000310998
3.926e-05 -6.89237e-05 -3.71636e-05
-3.39035e-05 0.000161066 -9.07746e-05
-2.25008e-05 5.68851e-06 2.1431e-05
-8.09219e-05 -4.64647e-05 -3.65972e-05
-2.95854e-06 2.18088e-05 -1.14201e-05
0.000320202 3.41893e-06 -0.000241662
5.57009e-05 0.000137756 -6.56745e-05
1.46196e-05 -1.27224e-05 3.12417e-06
3.58745e-05 5.91192e-05 -1.10142e-05
1.19356e-05 -2.50635e-05 6.47658e-05
-0.000196208 -2.28108e-05 -0.000848822
0.000495867 0.0004039 6.48749e-05
2.77246e-05 1.28706e-05 -4.24724e-05
-2.8554e-05 7.86681e-06 6.42537e-06
-0.000140333 -0.000248685 -0.000100464
-2.16685e-06 -9.44406e-06 1.94133e-05
2.08708e-05 3.47999e-05 4.68081e-06
-0.000325344 -0.000421403 1.52203e-05
-4.12099e-06 -1.23762e-05 -9.68958e-06
0.000288029 -0.000171285 -0.000436556
2.06993e-05 -0.000350741 -0.000109848
3.80452e-07 0.000106988 4.89372e-05
-6.60755e-07 -1.67634e-07 -4.22929e-07
2.58569e-05 4.76107e-05 0.000277937
5.35556e-06 8.72121e-06 7.31055e-06
-3.8316e-05 2.59831e-05 -5.83265e-06
5.61385e-05 -1.96709e-05 3.51933e-05
-0.000551265 -0.000124052 -0.000314943
0.000214487 -0.000347706 -0.000320731
-0.000196153 -4.3601e-05 -0.000228309
-0.000119618 -6.15597e-05 -7.74827e-05
0.00141774 0.000823467 0.00152942
1.2374e-05 7.28197e-06 1.80437e-05
-7.82217e-05 4.7727e-05 1.98328e-05
-6.70509e-05 2.98456e-06 0.000119948
-0.00151602 -0.000436731 0.00128004
-0.000576438 -0.00127997 0.00113354
-0.00029824 0.000141623 -0.000511568
-3.20923e-05 -6.83792e-06 5.59471e-06
-0.000518125 0.00131411 -0.00467125
0.000496033 0.000340656 -0.000328062
3.64119e-05 -3.83533e-06 2.12938e-05
6.84139e-05 -3.73726e-05 -1.54614e-05
-3.07136e-06 1.24812e-06 2.99762e-05
-5.30537e-05 -0.000807149 0.0002494
-0.000263837 -0.000205084 0.000421287
3.86383e-06 -1.70103e-06 0.000821584
0.00192627 -0.00194124 0.00381523
0.00171519 -0.00388311 -0.00226572
-0.000248015 -0.000599221 -0.00133038
1.51315e-05 2.52923e-05 8.64818e-06
-6.68048e-05 -8.97095e-05 -0.000101817
-7.20856e-05 0.000105439 3.56499e-05
1.50802e-05 -5.93762e-06 -7.19424e-06
9.14894e-05 0.000376398 0.000212694
6.18438e-05 -3.42347e-06 5.82694e-05
-6.68333e-05 -0.000134743 1.78481e-05
0.000200737 -0.000175441 -5.86029e-06
0.000488216 0.000154651 0.000332444
-0.000284657 -0.000287362 8.04004e-05
-1.85688e-05 8.2588e-06 -9.05457e-06
3.58155e-06 1.32308e-06 -3.48764e-05
-8.75243e-05 7.4495e-05 -9.71918e-06
-8.22381e-05 -1.16204e-05 2.99241e-05
1.70317e-05 4.30279e-05 -7.20548e-05
0.000627807 0.000680203 0.00090225
3.83484e-05 -6.25278e-06 -2.50661e-05
3.58548e-05 -3.27184e-06 -6.85775e-06
-3.17293e-05 -5.43575e-05 6.19899e-05
-0.000751104 -0.000242535 -0.000342549
-0.00109371 -0.000216062 -0.000742069
0.000175341 -1.56173e-05 -0.000138977
-4.71322e-05 0.000123508 0.000152432
1.68573e-05 -6.67541e-05 -6.75849e-05
8.46686e-06 -4.70262e-05 -5.38858e-05
-3.17408e-05 -5.14128e-06 -3.29516e-05
-6.57176e-05 6.70392e-05 0.000123309
-1.75631e-05 2.044e-06 -3.22773e-05
-4.17546e-06 2.76218e-06 4.47603e-06
-0.000204558 9.33001e-05 0.000116802
4.12233e-05 1.4738e-05 -1.9986e-05
-0.000406558 0.000500354 -0.000301964
-1.35293e-05 -1.96951e-06 2.08781e-05
1.30093e-05 0.000216398 0.000331363
-3.11152e-05 -2.64108e-05 4.49536e-05
-7.57853e-05 5.08791e-05 4.53328e-05
-1.97936e-05 1.75042e-05 -2.84734e-05
1.9153e-05 -7.52268e-06 -6.31706e-06
-2.77297e-05 -6.43317e-06 -2.21784e-05
-1.17814e-05 -3.59301e-05 -5.57391e-05
-0.000246147 0.000216792 0.000375221
-7.03483e-05 -5.23344e-05 -2.0506e-05
-0.000818739 -0.00035666 0.000937048
-0.000283905 -0.000275731 0.000299127
-4.94014e-05 2.9848e-05 4.03662e-06
3.08816e-06 1.17144e-05 6.27109e-07
-7.09163e-05 -0.000183054 -0.000692633
3.38579e-06 -5.46736e-06 -2.80456e-06
1.0874e-05 3.15734e-05 -5.96951e-06
8.36929e-05 -0.000324373 1.92489e-05
-1.14712e-06 -0.000200954 0.000149855
2.35178e-05 4.35655e-05 0.000109523
2.74032e-05 7.83786e-06 2.40291e-05
-2.34934e-05 1.4464e-05 4.57083e-06
-0.000456792 -3.26262e-05 -0.000383073
-8.61505e-05 3.69362e-05 2.60065e-05
0.00011258 -1.29169e-05 7.02322e-05
-3.17252e-05 -0.000220698 -0.000210145
6.31046e-06 1.18567e-05 1.58254e-05
0.000103315 7.42493e-06 7.63365e-05
-1.50917e-05 -2.92165e-05 -1.52341e-05
0.000123878 -2.46586e-05 0.000403273
-9.55864e-05 6.42689e-05 -0.000199623
-8.23876e-05 -9.95637e-05 -0.000290022
4.213e-06 -4.66983e-05 1.13029e-05
4.8683e-05 2.47785e-05 -1.28047e-05
-0.000109387 0.000146078 0.000270132
-3.92888e-07 2.37726e-05 5.44942e-06
4.03814e-05 0.000407033 0.00022667
7.66963e-06 -1.76556e-05 3.38049e-05
-3.66584e-06 -1.49725e-05 -5.35227e-05
-6.31924e-05 2.87479e-05 -7.70389e-05
9.4184e-05 -0.000309134 6.64396e-06
-1.03528e-05 9.20937e-06 8.84937e-07
2.22845e-05 -1.90174e-05 6.48104e-06
0.000214034 9.78488e-05 -0.000178918
0.000233687 -5.50242e-05 -0.000162527
-0.000293244 -5.56521e-05 0.000532793
0.000174092 0.00432554 0.00149687
2.35258e-05 4.87589e-05 -3.14748e-05
3.75119e-05 8.00461e-06 0.000212439
0.000431792 9.92347e-05 0.000542769
-0.000317237 0.000192838 -0.000394664
7.14107e-05 -0.000216341 0.000102586
-9.7884e-05 -6.84262e-05 3.15292e-05
-4.48284e-05 -0.0001192 0.000662322
0.00045509 0.000171098 -0.000428847
-1.39881e-06 -5.71782e-05 -9.60867e-05
-2.05306e-05 3.96453e-05 7.46124e-05
1.46355e-05 -9.52933e-06 -2.71197e-06
1.37717e-05 2.45329e-05 -1.13204e-05
-1.12225e-05 0.000222468 -0.000189748
-9.95959e-06 -2.06909e-05 -6.44081e-05
-0.000335952 -0.000127353 -0.000325171
4.02939e-06 5.74378e-07 3.24073e-06
-0.000623267 0.000528935 -0.000210441
-8.40038e-05 -4.0181e-05 6.1275e-05
2.41879e-05 1.01526e-05 6.59732e-06
-0.000498448 0.000108579 0.000142108
-0.000192829 1.4435e-05 0.000393653
-0.00060096 0.00234996 -0.00219597
-3.17408e-06 1.42082e-05 3.38318e-06
-5.30296e-06 -1.15598e-06 6.35847e-06
0.000445155 -0.000113822 7.97403e-05
0.00126926 0.000417187 0.000978088
6.74806e-06 -6.96971e-06 -1.88357e-05
0.000694854 0.000145485 0.00160814
-0.000134492 7.37015e-05 2.95105e-05
8.37084e-05 5.73431e-05 4.68245e-05
-0.00076227 -0.000247119 0.000898413
-0.000304415 -0.000250024 0.000277406
-3.81889e-06 -5.59152e-06 -1.08781e-05
-9.25455e-06 -0.00109905 0.00148226
2.39186e-05 5.08219e-05 -5.35241e-05
0.000169296 6.15528e-05 -8.10161e-06
-5.73743e-05 3.88857e-05 3.30303e-05
-0.000102493 -0.000672412 0.00036535
-2.22744e-05 -7.42507e-06 -1.52853e-05
-4.86151e-06 -3.96867e-06 7.94516e-06
-2.54166e-05 3.06349e-05 2.2338e-05
-3.13569e-06 -1.82856e-06 -7.44895e-05
9.79424e-05 0.000124398 -7.52323e-05
5.06896e-06 5.25303e-06 -1.39546e-05
-3.30347e-06 1.22544e-05 3.97832e-05
1.57294e-05 -9.57155e-07 -3.65686e-05
6.43863e-05 -0.000243034 -0.000290637
0.000319865 -0.000368285 -3.94849e-05
4.49695e-05 -2.12494e-05 8.99868e-05
4.99699e-07 -1.23335e-05 9.34462e-06
-5.20132e-05 -0.000214708 -0.000109166
-7.8143e-06 8.10633e-06 2.34318e-06
-9.33042e-06 -6.48676e-06 -1.13351e-05
0.000125698 1.88666e-05 -8.04643e-05
-5.94324e-05 4.35735e-05 -0.000208172
0.000128011 0.000154844 0.000210273
0.00109518 0.00254039 -0.00169273
0.000298955 0.000332994 -0.000253009
5.25637e-05 2.84564e-06 -2.84923e-05
-5.56953e-06 -2.17623e-05 6.57869e-05
0.000341505 -0.00090469 0.000458763
-2.32791e-05 1.49112e-05 -1.0592e-05
-0.000131836 3.70083e-05 8.98565e-05
-0.000161777 -0.000121062 0.000140833
9.30633e-05 -8.92903e-05 -1.57912e-06
-0.000156277 -0.000138939 3.6839e-05
-4.7693e-05 4.66206e-05 -4.52474e-06
0.000482718 6.06877e-06 0.000328091
-2.06903e-05 -2.86448e-06 6.59875e-05
-8.67047e-05 -2.49536e-05 7.70299e-05
-1.95641e-06 -3.6703e-05 2.61987e-05
-8.84957e-05 -0.000140346 -1.98137e-05
1.76644e-05 -2.93527e-05 4.41325e-06
2.05182e-05 -8.45362e-06 -3.99501e-06
-6.14387e-06 1.21037e-05 2.33084e-05
0.00020612 -5.72138e-05 0.000151426
0.000485216 0.000416041 -0.000526649
-0.000169599 0.000141555 -0.000215165
2.63217e-05 -3.23729e-05 -1.45779e-05
0.000105037 -8.47337e-05 9.61067e-06
3.9731e-05 0.000158469 4.69565e-05
-2.64644e-05 -1.03898e-06 -3.79709e-07
-0.000223616 0.000222427 0.000448958
5.5447e-06 5.55963e-06 3.90556e-06
-5.67139e-05 -8.10088e-05 0.0015394
0.000115814 -0.000100017 -3.50414e-05
1.61448e-05 5.24223e-06 7.05254e-07
1.49306e-05 1.54663e-06 1.73994e-05
8.99837e-06 4.06906e-06 7.4452e-06
0.000829104 0.000497359 1.86049e-05
2.47267e-06 2.13502e-05 -1.18141e-05
6.31473e-08 -8.77878e-07 -8.42982e-07
-4.63916e-06 -4.72305e-06 -4.00318e-06
-0.000661467 -0.00108154 -0.00368636
5.81779e-05 0.000681121 5.52318e-06
0.000534774 0.000555286 0.000657472
-7.89339e-05 -0.000129434 0.000125911
-0.000104081 -0.00038956 -0.000166711
-0.000482612 0.00131145 0.000405473
0.000229914 -0.0014862 -0.00097975
-3.71602e-05 -1.82957e-05 7.88327e-06
-0.00187803 0.000396111 -0.00118714
-0.000753247 0.00136446 -0.00337292
-0.000243341 0.000628016 0.000159538
-0.000304979 -0.000659256 -0.000250123
-0.00033858 -0.00123146 -0.000295317
0.000512437 -0.000763459 -0.000163904
8.81636e-06 8.96116e-05 -1.61285e-05
2.35413e-05 5.65874e-05 -5.11338e-05
-6.18387e-06 -6.87698e-05 -1.21971e-05
-5.88913e-06 4.24174e-06 2.80648e-06
1.10952e-05 0.000807464 0.00126846
-4.47102e-05 9.71784e-07 0.000163867
-0.000713693 -0.000818227 -0.000452428
0.000113135 3.57164e-05 9.22039e-05
0.000119314 -0.000180388 0.000191798
-0.00103749 -0.000934969 -0.00169036
-2.09326e-05 -0.000105405 2.82045e-05
-6.50478e-05 0.000112705 -0.000363169
0.000133742 -0.000201264 -7.27641e-05
-0.000255379 0.000488915 -0.000672028
-0.00200634 0.00146079 -0.00286573
-0.000105056 -4.01115e-05 9.05268e-05
-1.16439e-05 -5.66389e-05 2.67428e-05
-3.75281e-05 0.000125011 -4.14105e-05
8.2751e-06 -2.89549e-05 -3.83389e-05
-2.32298e-05 5.60586e-06 -1.06868e-05
0.000116671 0.000142935 -0.000123003
0.000140662 -0.000194787 7.74687e-05
1.17966e-05 2.94668e-07 -4.97158e-06
-5.19086e-05 -5.09249e-06 -7.15111e-05
-2.42222e-05 -9.61973e-05 6.83057e-05
8.77882e-06 1.26684e-05 4.30312e-06
-0.000320265 -0.000620745 0.000374726
-2.21896e-06 3.50159e-05 5.60452e-05
0.000239603 -5.16432e-05 0.000552011
1.10723e-06 -6.78603e-06 2.78172e-07
-0.000982101 0.000758098 0.000872485
-1.48107e-05 -1.7183e-05 -1.296e-05
-0.000955594 -0.0011577 0.00107369
-4.00225e-05 3.3803e-06 5.78174e-05
-0.000105352 4.3114e-05 -3.63745e-05
-0.000833105 0.00203538 0.00120584
-2.07778e-06 -2.58636e-07 -9.40261e-07
7.83819e-06 9.23976e-06 8.01435e-06
0.000283406 -0.000143175 -0.000798999
2.5271e-05 -5.40959e-05 2.19343e-05
-9.28056e-06 4.59155e-05 1.7297e-05
3.55485e-06 -1.68169e-06 1.68688e-05
-1.52483e-05 -1.80014e-05 -3.54257e-06
-5.81875e-06 -1.41729e-05 2.07329e-06
3.10036e-05 -6.01241e-05 1.5153e-05
-0.000414314 -0.000753001 -0.000657218
8.17037e-07 1.5428e-06 1.76533e-07
-7.08559e-06 -2.06452e-06 4.69108e-06
-0.000160209 -0.000154869 -7.34381e-05
4.99395e-05 4.756e-05 0.000779431
1.97575e-06 -1.15797e-06 8.73183e-06
7.06351e-05 -2.46411e-05 1.67083e-06
6.39923e-05 -6.79105e-05 9.37096e-05
-2.36725e-05 -7.18001e-06 2.57542e-05
1.95531e-05 4.05575e-05 8.32737e-05
2.30451e-05 -3.78331e-06 5.69469e-06
-1.64112e-05 7.32957e-06 2.00834e-05
-2.21391e-06 4.61704e-06 4.87749e-06
-0.000271374 0.000249205 0.000342992
9.96934e-06 1.96435e-05 -9.46199e-06
-9.54316e-07 -5.33514e-08 -5.85514e-07
-0.00012375 -2.26356e-05 -0.000194351
0.000689105 -0.000427425 -0.000699607
-5.95496e-05 2.35419e-05 9.73199e-06
-0.000445855 -0.000847065 -0.000111277
-0.000560546 -0.00100726 0.00424352
-0.000207547 0.000138475 -0.000171315
-5.73731e-05 1.12576e-05 0.000352704
0.000258374 9.21678e-05 0.00038928
7.6276e-05 0.000123638 -0.000155775
0.000195546 0.000111543 -0.000149784
-0.000107804 -7.69114e-05 3.22652e-06
5.71829e-05 5.95894e-05 0.000125942
2.32748e-05 -9.81466e-06 -2.90083e-05
5.83275e-05 -3.09669e-05 -6.16804e-06
-0.00017056 -0.000389502 0.000101206
5.19136e-07 5.35971e-05 8.76189e-05
3.61815e-05 -0.00030684 -0.000526319
2.68077e-05 -9.92693e-06 2.99745e-05
0.000563324 0.00079361 -0.00327711
-0.000161588 -3.10467e-05 0.000196393
9.12188e-05 -4.77337e-05 9.00367e-05
0.000456783 4.46946e-05 0.000216231
0.00347664 0.00191188 0.00295936
5.52198e-07 -1.91698e-05 1.00424e-05
0.000112039 3.66419e-05 -0.000125393
-5.78342e-06 3.0655e-06 -2.83729e-06
4.22961e-07 -2.87919e-07 1.19573e-08
0.00142415 -0.000988109 0.000303382
0.000445996 4.94725e-05 0.000434734
-2.51135e-05 -4.59934e-05 -3.59841e-05
0.00246301 -0.000778891 0.00436099
1.9032e-05 -2.69152e-05 1.77825e-05
-0.000122368 -9.4339e-05 8.37543e-05
-1.33322e-06 6.09705e-05 -9.09023e-06
0.000354322 0.000806732 0.00100865
-2.11463e-05 5.04651e-05 -3.31873e-05
0.000264721 9.08777e-05 0.00056587
1.57682e-06 -3.3236e-06 2.45722e-07
-2.96813e-05 8.12105e-05 -6.86949e-05
-0.00208211 -0.00116012 -0.000345146
-1.86189e-06 3.19436e-05 -9.30531e-06
0.000424943 2.23182e-05 0.000636344
-1.85075e-05 2.53773e-07 3.83976e-06
0.000187996 0.000212799 5.33804e-05
1.58512e-06 -1.56792e-05 6.35334e-06
2.83079e-05 -1.75424e-05 -0.000203989
-7.79185e-06 -1.37186e-05 1.65698e-05
-1.2648e-06 -4.53415e-06 4.52907e-06
3.29743e-06 -6.17935e-06 8.2514e-06
-0.000209133 0.00096619 -0.000629313
0.00099864 -0.000415839 -0.000880288
0.000224435 -1.15861e-05 0.000364959
9.08556e-05 3.14751e-05 6.07523e-05
2.7287e-06 -9.32893e-06 3.68664e-06
0.0001464 -1.58212e-06 -4.78893e-05
-0.000271751 6.37486e-05 0.000511403
-1.76537e-05 -1.17176e-06 -2.81302e-05
3.72503e-06 -3.43121e-05 -1.39222e-05
-4.28547e-05 -6.56989e-05 -0.000189494
0.000191338 3.70143e-05 -2.10316e-05
-0.000942072 0.000400621 0.000731535
0.00145715 -4.11832e-05 -0.00122886
-6.19973e-09 1.41851e-08 -4.10054e-09
-4.7479e-07 -1.73985e-05 6.82248e-05
0.000320172 2.84755e-05 -9.82242e-05
-0.000230184 6.34649e-05 -9.23242e-05
-7.21921e-05 -7.48085e-05 4.7267e-05
-0.000786607 -0.000657755 -0.000413097
-3.44371e-05 0.000125615 0.00194714
5.3394e-05 -0.000292788 0.000418265
0.000617058 -0.000570473 -0.00164104
-1.53142e-05 -8.27194e-05 -0.000128106
-0.000170545 -0.000105153 -1.16566e-05
5.68231e-05 2.69081e-05 -9.63387e-06
1.62546e-05 1.56053e-05 1.96656e-05
9.89276e-06 -9.59148e-06 -1.9359e-06
1.08834e-05 4.18002e-05 -1.45817e-05
-0.000407304 0.000704295 -0.000377979
6.66905e-06 -1.90979e-05 -4.2841e-05
0.000351078 -0.000240108 0.000407354
-2.60358e-06 -3.80343e-05 -1.2493e-05
0.000149124 -6.38673e-05 -5.45326e-05
0.000162496 0.00078647 0.000389008
7.13779e-06 -0.000181105 0.000697565
0.00073678 0.00147453 0.00056417
-0.000598132 0.00192892 0.00133283
3.34507e-05 6.38506e-06 4.91358e-05
5.00898e-06 8.73259e-06 6.71432e-06
6.99685e-08 3.31131e-07 6.4654e-08
7.05283e-05 -0.00012615 0.00018438
-1.34629e-05 -3.02435e-06 -4.50585e-06
0.000174597 1.48017e-05 5.50773e-05
2.6832e-05 -1.76595e-05 -0.000127748
-0.000106024 0.000253474 0.000138404
-4.07524e-05 2.77019e-05 -1.43838e-05
-4.81405e-05 6.65229e-06 -2.34032e-05
0.000185297 0.000480919 -0.000486411
0.000259604 -0.00129088 -0.00370197
0.000125537 3.40845e-05 -8.32992e-05
-2.96506e-05 1.10715e-05 -2.16288e-05
-4.89826e-05 4.76062e-05 -9.06441e-05
-1.65629e-07 2.73953e-06 -2.56632e-07
-1.52445e-05 9.3338e-06 1.44289e-05
-6.82994e-07 -2.95895e-07 2.1951e-08
-2.45797e-06 3.60643e-05 -2.43252e-05
9.95976e-05 -3.25178e-05 0.000145416
0.000325258 4.30362e-05 -0.000158978
3.47652e-05 5.54336e-06 6.24466e-06
0.00023547 5.25326e-05 0.000241679
-6.76035e-05 8.41381e-06 6.34186e-05
-0.000160435 0.000223925 0.000169049
-3.33148e-06 -1.1566e-05 -3.45142e-06
-3.96325e-05 -3.25075e-05 -0.000549907
3.90231e-07 5.74565e-06 -1.05959e-06
-0.000310188 9.20987e-05 -7.10567e-05
3.75481e-05 -0.000294366 -0.000101063
2.00945e-05 -2.57764e-05 2.93006e-05
1.93118e-06 -1.23093e-05 4.92965e-06
2.75343e-06 -3.1362e-05 -0.000501978
1.21112e-05 1.51057e-05 1.00184e-06
-1.63653e-05 9.24068e-05 -0.00059915
-7.60127e-07 0.000179219 9.80117e-05
0.00450884 0.00148257 -0.00235076
0.000259151 -2.4759e-05 -7.65725e-05
4.63898e-06 -9.17484e-06 1.16102e-06
5.7112e-08 1.50311e-06 -2.1204e-05
-0.0013093 0.000324825 0.00172623
-1.16712e-05 -0.000302583 -8.05956e-05
-8.47084e-06 -2.20898e-06 3.28734e-06
4.12974e-05 3.47472e-05 -4.55971e-05
-0.00105028 -0.000979446 -0.000551874
-2.13326e-05 3.38169e-05 -1.55198e-05
-0.000393164 0.00130439 -0.000484785
-0.00079954 0.000181705 0.00168158
-0.000776583 -0.000558783 -0.000927435
-0.000418735 -0.00321521 0.00372329
4.99073e-06 5.45817e-06 -6.51084e-07
2.1693e-06 1.67651e-05 -9.85743e-06
0.000655962 0.000504293 -0.000172356
-6.04638e-06 -5.49075e-06 -3.64356e-06
8.96089e-06 0.000592492 0.00147998
-2.73031e-07 -2.94535e-08 -1.19946e-07
1.92433e-07 -1.9225e-06 3.97117e-06
-0.000138922 0.000136077 0.000185674
1.41794e-05 6.75602e-06 8.35467e-07
4.97129e-05 -2.16078e-06 1.52973e-05
1.40842e-05 4.42217e-05 2.96226e-05
0.000180822 -0.000379519 0.000348697
-0.000215878 0.000449229 0.000472283
2.09805e-05 -0.00047766 -0.000459158
6.27001e-07 1.30256e-06 2.24551e-06
-0.0021041 0.000855076 -0.000408846
0.000146983 -0.000114893 0.000183223
0.000141453 3.62024e-05 -4.35378e-05
-2.00489e-05 -1.45018e-05 -3.72286e-05
0.000419329 0.00063304 -0.000220779
-8.48404e-06 3.91875e-07 5.34807e-06
-9.11749e-06 -7.2817e-05 0.000245921
1.24548e-05 2.87284e-05 8.71188e-05
-7.9961e-07 1.26834e-05 3.99665e-06
8.91034e-06 -7.7596e-05 0.000228507
-1.45881e-05 -8.4271e-06 1.27763e-05
-0.000211908 -0.000163799 -4.06802e-05
-1.13526e-05 -2.13245e-06 1.64535e-06
-0.00216219 -0.000474194 0.00246464
-0.0006511 -0.000386929 -0.00158658
-2.78241e-05 -7.61852e-05 -2.45287e-05
-7.52125e-08 1.51303e-05 0.000475388
4.77763e-06 2.08506e-05 -6.70622e-06
7.8428e-05 -8.72824e-05 -5.5282e-06
2.68388e-08 1.52462e-08 7.34697e-08
-1.1422e-05 3.20177e-06 1.38104e-05
7.2099e-05 -2.22041e-05 1.19252e-05
0.00027288 -0.000182184 0.000388981
3.26699e-05 -1.37513e-05 -8.47424e-06
-1.41048e-05 4.13283e-05 -2.56643e-05
0.000136878 -0.00110776 -0.00317261
-0.000155969 -5.20243e-06 -8.74189e-05
2.93637e-05 3.99546e-05 -6.52757e-06
-0.000210676 -0.000579992 0.000496646
-0.000506048 0.00052334 -0.00165533
-4.43732e-06 -8.176e-06 -2.55276e-06
0.00185023 -0.0014707 -0.00377411
-0.000999063 -4.8167e-05 -0.000326293
1.54054e-05 -4.24193e-06 -1.61917e-05
5.08283e-06 -1.20206e-06 6.61098e-05
1.65284e-05 1.88209e-05 1.65669e-05
6.55003e-06 -3.7121e-05 4.12919e-06
0.000204852 7.53312e-05 -0.000178651
-1.67548e-05 7.24221e-05 -5.42096e-05
-1.8647e-05 -3.80742e-05 -3.30053e-05
8.66261e-05 -0.000137241 -0.000769804
8.11831e-07 9.43546e-06 -1.05109e-06
-9.51777e-05 -0.000789069 0.000800663
7.56221e-06 -1.81869e-05 0.000219649
0.000181982 -0.000108841 0.0001482
1.0509e-05 1.53738e-05 2.40653e-06
0.00112609 0.000851839 -0.00108595
-2.83282e-05 1.09014e-05 2.23929e-05
1.19997e-05 -0.00119685 2.03513e-05
0.000235278 0.000666621 -0.000162403
0.000135331 -0.000210211 3.21365e-05
-0.000111839 2.39652e-05 -7.13906e-05
-0.0003702 5.46708e-05 9.20346e-05
0.000191032 0.0016544 -0.000392343
-0.000259777 6.84221e-05 0.000167596
-0.000126997 -3.54925e-05 -0.000154256
-3.39366e-06 -1.25623e-05 1.37736e-05
-3.92198e-05 -2.22103e-05 -6.2002e-05
1.23375e-05 -8.9649e-05 3.30856e-05
0.000104849 -0.000432129 -0.000235347
-0.00429241 -0.000757263 0.00266772
6.02106e-05 0.000396378 -0.000173106
0.00101714 -0.000158708 0.00133192
3.11281e-05 3.59298e-05 1.99141e-05
-0.000170489 -0.00025342 -9.5171e-05
-0.000121071 0.000190454 -3.42044e-05
3.87095e-06 -1.42165e-06 2.2603e-06
0.00410466 -0.000983282 -0.00175114
1.0652e-05 9.35979e-06 1.93036e-05
0.00065994 5.48726e-05 -0.00107519
0.000187032 -0.000548209 2.83272e-05
-1.66734e-05 -1.30597e-06 -9.0436e-07
-4.91559e-07 -1.04882e-06 9.69357e-06
3.27176e-05 -8.1485e-07 8.71937e-05
-6.72166e-05 -5.13346e-06 -0.000117411
0.000210249 0.000342211 0.000388557
0.000181682 -0.000198005 -3.38973e-05
-0.000165295 -1.72014e-05 1.24832e-06
-0.000148478 5.18774e-06 -0.000261149
0.000897917 -0.000484611 0.00104165
6.20764e-05 -5.94097e-05 2.35117e-05
-0.000286651 0.000432729 0.000353972
-1.3876e-05 6.39967e-05 3.447e-05
-2.75509e-06 1.32306e-05 4.29085e-05
-3.26252e-05 0.000485923 0.00273276
3.24446e-06 1.5836e-06 8.97229e-07
-0.0006594 -0.000232866 0.000125541
-1.6475e-07 -2.69609e-05 -3.59538e-05
-0.00029964 -0.000394511 -0.00157142
-0.000556941 -0.000580624 0.00123115
0.0015606 -0.00138556 -0.00109936
-0.00152214 -0.000483406 0.000134239
-0.000164769 0.000334187 3.32116e-05
0.000206488 0.000198636 5.25257e-05
8.8351e-06 -1.4512e-05 9.00325e-06
-8.10606e-06 2.98201e-05 4.99603e-06
-3.21075e-05 -2.69833e-05 -2.2289e-05
0.00016813 2.74932e-05 -0.000145851
-0.000150429 -0.000293336 0.000566592
-3.05092e-06 -1.60598e-05 2.8751e-06
-0.000458313 -2.76476e-05 0.00040651
4.14321e-05 -0.000142444 -6.06189e-05
-5.32323e-05 -1.41497e-05 -3.05423e-05
-0.00050012 -6.51091e-05 0.000255119
-0.000130217 -0.000367994 -0.000146057
0.000655508 -0.000795446 -0.00138879
0.000102836 -0.000169526 -0.000293389
3.28089e-05 -1.49505e-05 5.46552e-05
-0.000974355 0.000257122 0.000654567
0.000141581 4.4142e-05 0.000211587
2.39895e-05 4.39091e-06 1.97542e-05
3.59016e-05 0.000135106 5.96708e-05
-7.86191e-06 4.10587e-06 6.27072e-06
0.000534934 1.54911e-05 0.000786341
5.55605e-06 1.11694e-05 1.54703e-05
0.00127118 -0.000742995 0.0112298
-0.000450824 -0.000151809 0.000232651
9.42214e-07 1.05326e-06 -1.38271e-06
0.000374953 0.000500833 -0.00180771
-0.000266314 -0.000547945 0.000381369
8.00732e-06 6.25393e-06 1.78441e-05
0.00328928 -0.00254809 0.000146146
-0.000100962 0.000298585 -0.00113817
-0.00474543 -0.000349346 -0.00409625
4.22745e-06 0.000148229 2.19637e-05
1.02036e-05 0.000687636 0.000421059
2.38961e-06 9.57211e-05 5.52116e-05
9.05842e-05 0.000125365 -0.00155326
-7.44933e-05 -0.000532003 0.00129596
-0.00582683 0.00304891 -0.00294616
-7.88334e-05 1.50711e-05 2.59764e-05
1.60164e-05 0.000371886 0.00179213
7.73938e-05 -2.81054e-05 -2.01779e-05
4.02264e-06 -3.5365e-06 -2.53436e-06
-3.44918e-05 -1.99255e-05 5.07129e-05
7.32153e-05 0.000907165 -0.000205501
-0.000272326 -0.000215787 -0.000689588
2.79708e-06 2.09845e-07 -1.00865e-05
-7.25053e-05 -0.000377251 -0.0002543
-0.000379709 -0.0028287 0.0024073
-2.70173e-05 0.000264572 0.00058987
-1.32804e-05 3.6549e-07 9.8074e-08
-0.00278621 0.000763533 -0.00148255
0.000428924 0.00026333 -0.000242568
3.98489e-05 4.75047e-06 0.000231681
0.00254418 0.00203672 -0.000327523
7.01075e-05 8.47926e-05 1.51893e-05
6.88147e-06 1.11004e-05 -2.9106e-05
1.14541e-05 2.65251e-05 2.76267e-05
0.000234815 5.55677e-05 0.000602835
-5.5185e-05 2.75479e-05 -6.79343e-06
-7.10629e-05 -4.43693e-05 1.09254e-05
-1.80219e-05 1.43592e-05 1.53149e-05
6.98521e-05 9.28005e-06 -4.82787e-05
0.000478125 0.00145155 -0.00215515
-4.01684e-05 -4.15913e-05 -1.96141e-05
0.000155415 -0.00010762 0.000113736
-2.36632e-05 -0.000161973 8.8782e-05
0.000138317 0.000296353 -0.000492505
1.54077e-05 -3.86498e-06 2.33735e-05
3.86352e-05 1.99111e-05 1.27553e-05
2.19202e-05 1.50511e-05 2.40118e-05
0.000480495 -0.000682231 0.000415562
1.53398e-05 -7.15308e-06 -8.00753e-06
2.82789e-07 -9.06159e-06 -1.14025e-05
6.95218e-05 -2.03655e-05 -2.41331e-05
0.000125304 -1.52019e-05 0.000103651
-0.00015584 -0.000104998 -0.000480972
-0.000418064 -0.000295825 0.000390795
-1.23247e-05 -9.32037e-06 -1.0075e-05
0.000665804 -0.000164153 -0.000391134
-1.42038e-05 2.52867e-05 -2.85199e-05
1.75846e-06 -0.000113765 -0.000102832
-2.39238e-05 -6.89393e-05 0.000291832
6.27471e-07 2.10286e-06 -2.46037e-07
2.61184e-05 -0.000176687 0.000210627
-1.96917e-05 0 1.39184e-05
4.22066e-06 0 2.91737e-05
4.74277e-05 0 -0.000235985