<?xml version="1.0"?>
<VTKFile type="UnstructuredGrid" version="0.1" byte_order="LittleEndian" compressor="vtkZLibDataCompressor">
 <UnstructuredGrid GhostLevel="0">
  <Piece NumberOfPoints="1255" NumberOfCells="1255">
   <PointData>
    <DataArray type="Float64" Name="Elongation" NumberOfComponents="3"/>
1.59195e-06 1.02252e-06 1.41427e-09
-1.08362e-07 -4.30777e-07 8.221e-11
-6.21949e-08 -9.26788e-07 3.66803e-10
6.89776e-09 -9.2661e-07 6.35775e-10
-1.52374e-07 -1.08206e-06 1.0747e-09
6.62581e-07 -1.69894e-07 4.15652e-10
5.8134e-08 -1.05703e-11 -4.15967e-06
6.12684e-07 5.62817e-09 3.72513e-11
-4.84201e-07 -2.84473e-10 -3.53075e-07
1.61279e-07 -3.16531e-06 2.57547e-09
-5.5499e-08 -1.26181e-06 1.09631e-09
-4.5146e-06 -9.94877e-07 -1.41172e-08
1.42277e-10 -1.12975e-06 1.99336e-05
1.93354e-06 7.24929e-07 1.83903e-09
-6.17898e-08 1.28041e-06 4.78111e-10
2.52028e-06 -1.78758e-09 1.24639e-05
2.88326e-07 2.51142e-07 1.47061e-10
-7.71901e-08 1.76091e-07 6.3381e-11
4.73231e-07 3.25907e-08 8.33281e-11
1.64308e-07 -9.57574e-09 2.53267e-11
-2.8458e-07 1.59899e-11 -1.46179e-05
8.72856e-08 -7.97191e-08 1.94042e-11
-1.49812e-07 -1.00597e-10 -4.76245e-06
7.57457e-07 -1.48947e-06 7.98296e-10
-9.54433e-07 -1.52518e-06 6.94748e-10
-2.87266e-06 -2.09798e-06 -4.78057e-09
-1.01036e-10 4.4256e-07 -5.38299e-05
2.98708e-10 -1.23093e-06 -1.05634e-05
-1.74991e-08 -2.75209e-07 2.56672e-11
4.02497e-10 -1.53644e-06 1.41997e-05
1.89479e-06 -1.31919e-09 -1.49531e-05
-7.6352e-08 1.57726e-08 1.35184e-11
3.7039e-07 -7.30207e-08 3.28916e-11
1.75777e-07 -2.6659e-07 1.86396e-11
2.61398e-07 7.42769e-08 3.82639e-11
5.58126e-07 -6.95664e-11 -1.51834e-05
-8.0192e-09 -1.26734e-07 2.21051e-11
3.11412e-07 -2.48544e-07 3.90307e-11
-1.93281e-07 -5.5777e-07 5.72058e-11
1.94714e-10 3.12993e-06 -1.26405e-05
1.75797e-07 -1.0072e-06 5.42823e-10
-2.10846e-06 -7.78837e-07 -3.92029e-09
1.15465e-06 6.92304e-07 1.01052e-09
6.25898e-12 -4.94238e-07 -1.42665e-05
2.71503e-08 8.2976e-08 7.41849e-12
6.05659e-11 6.72816e-07 -2.80752e-06
2.97829e-07 2.26612e-07 3.80047e-11
2.40459e-11 3.05786e-07 -2.12243e-06
-7.04849e-08 1.91369e-11 1.28183e-05
-1.04539e-07 -6.90617e-08 -8.72619e-12
-1.50624e-07 7.99637e-08 -1.25129e-11
1.97946e-07 6.92801e-08 7.68488e-12
7.27313e-11 5.42871e-07 5.89182e-06
3.03965e-07 -2.22004e-12 -1.08136e-05
-1.35907e-07 -2.79511e-07 -1.16035e-11
4.86377e-07 1.98544e-07 -2.53826e-11
-6.8068e-09 -2.41101e-07 2.609e-11
-2.04083e-06 -1.21033e-06 -2.66723e-09
8.59221e-07 -3.45377e-07 7.49128e-10
-4.15093e-11 1.28506e-06 1.40638e-05
-2.63568e-08 1.4876e-07 5.71568e-12
-1.29649e-12 1.55944e-07 6.12119e-06
2.09828e-07 2.85858e-07 3.02227e-11
1.81475e-11 1.38266e-07 -1.00557e-05
9.97433e-08 -4.7707e-12 4.75279e-06
-2.92876e-08 -1.21662e-08 -1.78446e-12
1.38236e-07 -7.25636e-08 1.51607e-12
8.40945e-12 -3.79508e-07 4.62483e-06
3.83452e-08 1.18926e-12 1.04246e-05
9.57243e-08 7.70293e-08 2.63092e-12
-1.08937e-06 5.11758e-12 -5.9437e-06
-1.02003e-07 -3.94389e-07 3.44824e-12
-1.26221e-11 -1.1886e-06 4.89619e-06
-7.24659e-07 -2.50359e-08 3.22656e-11
-8.5257e-07 -1.58093e-07 1.29693e-10
-1.51689e-06 -9.12494e-07 -2.19636e-09
1.23082e-06 3.35381e-07 1.31348e-09
-4.06302e-11 3.17208e-07 -1.52459e-05
-1.05562e-07 1.8561e-07 1.11936e-11
2.29613e-11 -2.07436e-07 -8.40423e-06
-1.95293e-07 4.14699e-08 -2.08123e-11
-3.31829e-11 3.02751e-07 6.9775e-07
-5.19677e-07 1.23542e-11 5.01107e-06
-3.25722e-07 -1.99663e-07 -1.05819e-11
-4.64118e-08 4.90365e-08 2.62215e-12
-4.22415e-07 3.01616e-07 -2.48457e-12
-8.65469e-07 -6.4777e-11 7.72096e-06
8.83984e-08 -2.42266e-07 1.28749e-11
1.05967e-06 -7.07421e-11 7.92453e-06
-1.93176e-07 -3.84171e-07 9.51397e-12
-7.61453e-07 -5.01591e-07 4.9238e-10
-2.56408e-06 6.59919e-08 -4.21517e-09
-6.2456e-07 1.01813e-11 -5.30406e-05
2.41469e-07 -1.25061e-07 1.46505e-11
1.31374e-07 2.17875e-07 1.44802e-11
-9.86767e-08 6.95543e-08 4.06784e-12
-2.09908e-07 -1.57625e-07 -6.09531e-12
-1.21152e-10 -8.12878e-07 -7.15641e-06
5.17391e-07 -5.0352e-11 8.7623e-06
4.22919e-08 -2.42744e-08 -5.68178e-12
1.66737e-07 5.39673e-07 1.4526e-11
3.25577e-07 3.08175e-11 -3.64482e-06
-5.03757e-07 -4.58787e-07 -8.28029e-12
-3.86758e-07 1.54551e-07 7.27715e-11
-5.42633e-08 9.54227e-08 1.84972e-11
-2.07744e-06 -7.06514e-08 -3.22842e-09
-4.83818e-07 4.08262e-08 1.80653e-10
-1.14858e-11 1.02467e-07 -6.92044e-06
-5.77427e-07 4.40241e-07 1.01101e-10
-4.35332e-07 -5.58332e-11 -5.69255e-06
7.42885e-08 -2.17443e-07 -2.38146e-11
-2.37984e-11 -6.42718e-07 -7.84032e-06
9.18434e-07 -1.27471e-11 7.19365e-06
-8.17305e-08 -1.37831e-07 -1.1481e-11
-5.47613e-10 2.23881e-06 -8.11425e-07
-4.82847e-07 -3.28948e-08 3.54322e-11
-1.331e-10 6.01189e-07 1.08543e-06
-7.30754e-07 -3.72038e-07 1.5452e-10
9.89281e-07 1.84437e-11 2.05606e-06
3.72777e-07 -8.25036e-07 8.46705e-11
-5.86667e-07 -1.87529e-07 3.09569e-10
3.26591e-10 -2.53331e-06 1.43183e-05
-3.92279e-07 1.60394e-11 3.9211e-06
-9.74437e-07 -3.72851e-07 5.39367e-10
-1.43792e-06 3.02813e-07 -2.12274e-09
9.07608e-12 -1.86882e-07 -5.38162e-05
-2.92317e-07 -3.41038e-07 -5.85775e-11
3.71319e-07 -3.56802e-07 -8.53772e-11
-4.8237e-07 -5.1883e-07 -1.88177e-11
2.67848e-06 3.75309e-10 -1.03194e-05
4.51758e-07 -6.40641e-07 -1.09368e-10
-9.51465e-07 -1.37838e-08 3.69507e-10
-1.90287e-07 -7.74504e-07 1.29896e-10
-2.09134e-08 1.94888e-07 -5.10638e-11
-6.63707e-07 -4.88851e-07 7.06965e-10
-1.60379e-06 5.14919e-11 -5.25432e-06
-7.3081e-07 -3.03204e-06 2.48743e-09
-1.6591e-06 -2.48051e-08 -1.46113e-09
-2.46652e-07 -4.47533e-06 -1.51005e-08
-2.77158e-08 -3.44515e-06 -9.71817e-09
-1.21462e-06 -1.68064e-06 -2.00214e-09
-1.69945e-07 -3.32315e-07 -4.73156e-10
3.89662e-07 -6.10943e-10 -2.56276e-06
-1.29932e-06 -3.9001e-06 -5.8151e-09
-1.51599e-07 -1.67574e-06 -2.65704e-09
5.16617e-08 -2.62805e-06 -4.03979e-09
2.6638e-07 -2.93569e-06 -3.83105e-09
-5.71132e-07 -3.28492e-06 -2.42277e-09
-5.70741e-07 -1.85195e-06 8.7188e-10
2.98476e-11 -5.39178e-07 4.25832e-06
-2.13378e-06 -6.27449e-07 -3.53362e-09
-1.62281e-07 -4.56472e-07 -1.18649e-10
-4.29092e-07 -1.73007e-07 -1.70815e-10
-1.43538e-08 5.55401e-07 -1.92398e-10
-4.51957e-07 2.19463e-07 -2.60284e-10
-1.91256e-07 4.90268e-07 -2.87754e-10
-2.37282e-07 3.6101e-07 -2.37908e-10
-2.57862e-07 4.97236e-11 7.20349e-06
-1.9894e-07 5.10271e-07 -3.90304e-10
-4.79619e-06 -5.02289e-09 4.2522e-06
-1.08121e-06 1.22217e-06 -2.32151e-09
1.53799e-07 7.53576e-07 2.80169e-10
-1.10501e-06 -3.3562e-07 -1.41601e-09
4.60309e-07 -1.26549e-06 -3.3864e-10
-3.51058e-07 -1.06964e-08 -7.50486e-11
1.32976e-06 4.04121e-10 2.8609e-06
-5.52536e-07 -8.9182e-08 -1.72763e-10
2.45984e-06 -1.5195e-11 -1.39211e-05
-5.97308e-07 -6.5178e-07 -4.24369e-10
5.27906e-10 7.15687e-08 3.39965e-11
-2.56878e-07 8.44087e-11 -7.69829e-06
-2.80873e-07 -2.39778e-07 -1.85353e-10
3.34091e-07 1.32839e-07 -9.35418e-11
-5.26746e-07 -3.56002e-09 -8.77407e-10
-2.06787e-07 4.09125e-07 -1.57994e-09
7.49661e-12 2.00901e-07 -5.08379e-05
-7.10729e-07 2.70105e-07 -6.11925e-10
-2.86389e-07 -6.79943e-07 -1.45729e-10
-7.5236e-08 -2.20725e-08 -7.18008e-12
1.76205e-07 1.32867e-07 1.18948e-11
-3.78143e-07 1.66001e-11 8.45948e-06
-3.42404e-07 2.47675e-07 -1.35274e-10
-2.03886e-09 4.30354e-06 -3.72712e-06
3.66797e-08 -3.51807e-08 1.33529e-11
-5.14266e-07 4.07041e-07 -3.18318e-10
4.10463e-08 1.15793e-11 -1.99957e-06
6.73676e-07 7.95518e-07 -4.857e-10
7.8568e-07 -4.74286e-10 8.5794e-06
-6.19013e-07 7.27698e-07 -1.05917e-09
-5.39427e-07 -1.51939e-07 -2.52053e-09
1.85666e-07 -2.21028e-11 -1.13452e-05
-7.63623e-07 -5.07413e-07 -6.51779e-10
-1.62899e-07 -2.46501e-07 -5.08056e-11
-1.15697e-07 4.1333e-09 -8.29405e-12
2.62288e-07 -3.13332e-07 -2.41275e-11
-7.8598e-11 -3.98252e-07 3.33315e-06
-7.94857e-08 -1.97507e-07 -6.70273e-11
1.26363e-09 2.61303e-06 -2.17415e-06
-5.77257e-07 -2.3083e-10 7.28205e-06
-6.2912e-08 6.28172e-08 1.24571e-11
3.32772e-07 -1.45272e-10 -6.49121e-06
-3.85299e-07 -1.11732e-07 -1.53499e-10
5.68713e-07 1.87248e-10 1.06202e-05
6.40453e-07 -1.77649e-07 -2.80063e-10
-2.02042e-08 4.92092e-08 -3.85683e-12
-8.62265e-07 1.34465e-06 -6.24931e-09
7.02084e-09 -3.44944e-06 1.5971e-05
-5.59805e-07 6.5519e-08 -3.63886e-10
-4.02715e-08 -1.92608e-07 -2.25874e-11
-1.26412e-07 -3.84575e-08 -1.32913e-11
-1.9749e-06 -2.11793e-10 4.44675e-06
4.47472e-08 -3.33674e-07 -3.5276e-11
-7.41302e-07 2.38547e-11 -4.6937e-06
-2.74263e-07 1.77996e-07 -1.28163e-11
-8.36905e-07 -2.87646e-11 5.58904e-06
-2.17568e-07 -1.96153e-07 -4.20781e-11
-1.97671e-07 -1.34098e-07 -8.1666e-11
4.57851e-07 -1.62365e-07 -2.64607e-10
3.97211e-07 -1.36843e-07 5.44127e-11
3.41037e-11 -8.27827e-07 6.82944e-06
-8.42944e-07 -8.80925e-07 -4.72544e-09
-1.27281e-05 -7.83373e-08 7.48018e-06
-8.14244e-10 -1.89331e-11 -3.63411e-05
-3.40059e-07 -1.1411e-07 -1.20042e-10
-3.3806e-07 -5.10936e-07 -2.20451e-10
-1.90007e-07 -4.1635e-07 -1.6197e-10
-2.98077e-07 -2.80139e-07 -8.55282e-11
7.05026e-08 -4.06404e-07 -9.47513e-11
1.78692e-11 3.88921e-07 -8.47786e-06
1.50531e-07 -5.98093e-08 -6.95969e-13
-2.80628e-12 5.08461e-07 1.17855e-05
5.32203e-08 -9.55867e-08 -2.27084e-11
6.75144e-07 -1.56677e-07 -3.86112e-10
-8.02534e-08 -1.76566e-07 -3.04767e-11
-8.84203e-07 4.79511e-08 -3.9628e-09
-4.3961e-07 1.61921e-07 -1.63925e-10
1.81621e-07 -1.54651e-07 -7.62486e-12
2.08066e-11 -7.03992e-08 -1.44248e-06
3.95695e-08 -1.26836e-07 -1.70043e-11
9.55603e-13 -7.13152e-09 -1.21245e-05
1.69564e-07 2.98139e-08 1.05912e-11
1.28601e-11 -2.13337e-07 -2.46781e-06
-3.47973e-07 -2.93376e-07 -1.05039e-10
4.04609e-07 4.4431e-07 1.354e-11
-6.89953e-07 2.42386e-10 3.95678e-06
4.38422e-07 -1.00397e-07 -6.7981e-11
8.00585e-11 8.78059e-07 6.46041e-06
6.22725e-07 1.96815e-07 -4.5658e-10
1.90308e-07 1.11426e-07 -7.76818e-11
-5.69876e-07 1.62921e-06 -6.30275e-09
-9.59978e-09 4.4317e-06 -8.19863e-06
-4.49178e-07 -1.09569e-07 -2.04657e-10
-2.9788e-07 3.98345e-07 1.22344e-10
5.29389e-07 6.39718e-11 -6.44352e-06
-1.07796e-07 -2.51129e-07 -5.35162e-11
-7.40614e-11 -7.35026e-07 -1.13073e-05
1.97772e-09 -6.21594e-07 -1.10811e-10
4.46023e-08 -6.2164e-08 8.44371e-12
7.39701e-08 6.53919e-07 -6.00281e-11
1.84213e-06 -4.07739e-10 9.38008e-06
3.89477e-07 5.5218e-07 -2.88576e-10
5.55005e-06 -2.59665e-09 -7.74257e-07
9.05069e-07 4.1835e-07 -8.98001e-10
6.92605e-07 4.79434e-07 -5.79027e-10
-1.34392e-06 2.99256e-07 -6.07236e-09
-4.94336e-11 -5.75802e-07 -5.26037e-05
1.19632e-07 -1.26292e-06 -1.75426e-09
-2.15238e-07 -1.7561e-06 -2.92431e-09
3.83062e-09 3.49341e-06 -1.74762e-05
5.32237e-07 -7.07411e-07 -1.16718e-09
4.62115e-08 -1.51365e-11 -1.33962e-05
2.2847e-07 -1.28988e-06 -2.03715e-09
-2.90277e-07 -4.67995e-07 -5.22806e-10
2.78046e-08 -7.97037e-07 -1.01007e-09
8.94314e-07 -7.52358e-07 -1.24819e-09
1.40401e-06 6.31541e-07 -1.9825e-09
9.77133e-07 4.78657e-07 -9.49158e-10
-8.63727e-07 1.48419e-06 -6.17405e-09
8.27563e-11 5.85071e-07 5.61915e-05
5.32171e-08 7.28953e-08 5.49227e-10
7.79422e-07 -1.69364e-07 -1.94922e-09
1.44403e-06 -1.3112e-06 -9.09986e-09
1.47513e-06 -3.30152e-07 -4.72037e-09
-1.59354e-06 -1.44232e-06 -8.9325e-09
1.76694e-06 -1.72039e-06 -1.11428e-08
1.38974e-06 -2.64776e-07 -4.02355e-09
1.48395e-06 -8.55965e-07 -7.97601e-09
1.62216e-06 -3.14586e-07 -4.65172e-09
7.95328e-07 7.71478e-07 9.1015e-10
-4.36975e-07 5.1244e-07 6.71303e-10
3.08841e-07 1.70301e-06 2.42161e-09
3.30103e-07 1.89166e-06 2.73709e-09
4.48976e-07 1.2818e-06 2.07335e-09
8.86063e-07 1.75641e-06 2.93767e-09
-5.85517e-07 1.28637e-06 1.97198e-09
2.53042e-06 -4.49351e-11 1.56714e-05
-2.3447e-07 1.19433e-06 1.79747e-09
-6.55083e-07 -1.15124e-10 -1.59916e-05
-1.79424e-07 1.46772e-06 6.4676e-10
4.76314e-07 -3.77902e-07 5.08917e-10
2.4087e-06 4.32217e-09 3.65643e-06
1.75279e-06 -6.37992e-07 1.92771e-08
-5.11342e-10 2.67609e-06 -4.82129e-05
-5.13804e-07 -3.04366e-07 1.87565e-10
7.6247e-07 -1.20052e-06 1.04979e-09
-4.39111e-08 1.07759e-07 -4.80321e-11
8.73488e-07 6.32023e-08 3.15042e-10
2.88956e-06 1.36543e-09 6.68544e-06
-1.52224e-07 -3.07014e-07 -3.69898e-11
1.43044e-06 -1.38099e-10 -4.05162e-06
2.78386e-08 1.0363e-07 6.16936e-12
-1.33316e-06 5.15766e-10 3.80042e-06
3.15653e-07 -4.37872e-08 1.10464e-10
-7.15143e-07 -3.49713e-10 -4.05757e-06
4.33651e-09 -8.39029e-08 3.86549e-12
5.06577e-07 8.96639e-07 1.01622e-09
9.14866e-07 2.14964e-06 1.13978e-08
-1.146e-06 1.24477e-06 2.34411e-09
1.02308e-06 1.03617e-06 1.38601e-09
1.4231e-07 -4.40167e-08 -2.08241e-11
5.48435e-07 -3.47627e-10 5.30646e-07
-1.54255e-07 1.39749e-06 6.91623e-10
-3.05773e-10 -9.09796e-07 3.19742e-06
-2.07118e-08 2.37758e-07 2.01179e-10
5.03473e-07 -2.43144e-10 9.20444e-07
-2.12515e-08 2.14818e-07 2.17784e-10
-1.89334e-06 1.84706e-10 -4.02029e-06
-3.53015e-07 3.45688e-07 1.96356e-10
1.72773e-07 4.85035e-08 1.28326e-10
6.59327e-11 -1.24956e-06 1.70683e-06
-2.85784e-07 4.59995e-07 2.59972e-11
9.46148e-07 -1.50235e-06 8.85515e-09
-1.67853e-07 4.04842e-13 4.3091e-05
-1.14588e-06 7.01506e-08 1.34621e-09
2.63587e-07 3.52833e-07 1.06679e-10
1.45929e-08 5.09869e-08 7.61555e-12
1.84497e-07 -2.37943e-11 -9.71538e-06
2.37934e-07 -3.0729e-07 -2.16825e-11
-5.31199e-07 -8.16045e-12 1.24022e-05
-6.6495e-09 -1.62044e-07 1.44624e-11
2.28541e-07 1.14017e-07 9.17112e-12
1.83913e-09 -3.44454e-06 1.784e-11
-2.72424e-07 -1.71798e-07 1.19236e-10
1.07005e-06 -1.51148e-10 -5.70512e-06
5.56388e-07 -5.73903e-07 5.39111e-10
-4.82754e-08 2.71376e-07 -2.97543e-11
1.59008e-06 1.16067e-06 9.22272e-09
3.67987e-09 -2.06452e-11 -4.9441e-05
-1.45e-06 3.94314e-07 2.3086e-09
1.12892e-08 1.61322e-07 3.77405e-11
1.14347e-09 1.38529e-07 2.71127e-11
-1.50379e-09 -5.92602e-08 -8.22863e-12
4.97994e-11 -3.609e-07 -1.01944e-05
-1.26444e-07 1.67467e-07 -3.02897e-12
-1.36474e-07 -1.30453e-07 -4.91699e-12
-3.18964e-07 2.11827e-07 8.17e-11
-6.05558e-14 -1.59388e-07 -2.57804e-06
4.78617e-07 -2.25849e-07 2.09092e-10
5.73378e-07 -1.06137e-10 -2.94391e-06
-4.48256e-08 -7.04477e-08 -3.24529e-11
1.24808e-06 7.14894e-07 6.82102e-09
-1.07766e-06 -4.01823e-07 1.37752e-09
-4.57122e-08 -2.81073e-07 -1.51113e-11
-1.226e-07 4.55156e-08 -1.81741e-12
-9.18684e-08 2.45913e-08 -3.64707e-12
-9.69118e-08 2.34516e-07 3.01319e-11
3.39027e-10 1.72626e-06 5.29562e-06
2.60413e-07 -9.24028e-08 4.15989e-12
1.96867e-07 -4.44621e-14 -5.14672e-06
8.99762e-08 2.84354e-08 -6.10971e-12
-9.751e-09 -4.12841e-07 1.77519e-10
3.48397e-07 -5.90765e-08 2.62631e-10
1.2654e-06 -9.94749e-07 7.18873e-09
-2.50812e-11 4.11355e-07 -5.75212e-06
-7.42389e-07 3.61765e-07 3.78817e-10
3.23984e-07 1.06551e-07 5.78642e-11
-5.95887e-08 1.07266e-07 1.71548e-11
2.44565e-07 3.68008e-08 9.51387e-12
-1.57325e-07 -2.29175e-07 -1.09308e-11
2.01468e-07 8.47425e-08 6.91814e-11
-2.26159e-07 -1.42485e-07 2.67347e-11
2.85982e-13 1.24382e-07 -3.92714e-06
-1.55067e-07 -1.10775e-07 6.19856e-11
6.29251e-07 -3.87363e-07 6.54514e-10
1.77095e-06 8.42397e-08 9.61287e-09
-3.49335e-07 -1.08083e-07 4.29582e-11
-2.8642e-07 7.36642e-07 3.0654e-10
-7.52601e-10 -1.41873e-06 -1.34991e-05
5.1318e-07 5.11819e-07 2.72794e-10
-5.45066e-07 7.1789e-07 5.20529e-10
-1.66043e-07 -2.21323e-08 -6.08365e-12
2.81541e-07 7.41865e-07 4.39132e-10
2.81983e-09 2.47045e-07 4.549e-11
-1.75385e-08 5.03651e-08 9.79211e-12
3.24086e-07 1.72652e-07 2.09685e-10
1.78888e-06 -1.82615e-06 1.31994e-08
-7.34824e-12 2.5533e-07 5.39933e-05
1.21496e-06 2.31728e-11 2.17555e-05
-4.26016e-07 9.04778e-07 1.13093e-09
3.61718e-08 6.14606e-07 8.18695e-10
-4.44727e-07 5.82301e-07 6.70381e-10
-2.38726e-07 6.21741e-07 7.68924e-10
9.27223e-07 7.83492e-08 3.34656e-10
6.85388e-07 8.60885e-07 8.97766e-10
3.20612e-07 2.65868e-07 2.70502e-10
-2.52678e-07 4.49045e-07 5.07171e-10
5.2842e-07 1.38028e-07 3.43781e-10
1.58921e-06 -1.85212e-06 1.16312e-08
1.01675e-11 8.53683e-07 -5.69301e-05
-9.45318e-07 1.81402e-06 2.04255e-08
-1.58399e-06 1.69111e-06 1.77348e-08
9.22408e-07 1.72453e-06 1.09172e-08
-1.80348e-06 1.43597e-06 1.21025e-08
1.05408e-07 2.08198e-06 1.1076e-08
-9.88788e-07 1.79675e-06 1.09237e-08
-1.22873e-06 1.59494e-06 1.13905e-08
-5.42261e-07 1.93009e-06 1.1286e-08
-7.7459e-08 1.78126e-06 8.72617e-09
-5.75412e-07 1.48877e-07 -4.72501e-10
1.91234e-06 1.28547e-10 6.5985e-06
1.4837e-06 2.77473e-07 -1.21745e-09
5.48724e-08 1.6198e-07 2.39749e-11
-8.28581e-08 -2.92047e-07 -7.47343e-11
9.80373e-08 -2.9633e-08 1.10208e-12
8.013e-08 1.55251e-07 2.0688e-11
-3.71786e-08 3.85659e-08 2.63079e-13
2.89471e-08 1.61833e-07 -3.39782e-12
-1.7667e-07 -1.8158e-07 -1.11122e-10
3.60767e-07 -3.24138e-07 2.25251e-10
-2.59235e-06 5.89568e-07 -3.36753e-08
7.59436e-07 -1.78799e-07 -4.29219e-10
-1.64996e-08 8.22678e-07 4.10299e-11
6.69566e-08 2.31468e-11 -8.95117e-06
2.85235e-08 1.86713e-07 -3.23517e-11
-1.03923e-07 1.7742e-07 -6.40546e-11
1.39355e-07 3.73945e-07 -1.3197e-10
-9.65762e-08 2.83131e-07 -2.2039e-10
2.64541e-08 2.96196e-07 -2.01216e-10
-2.30876e-06 -3.61672e-10 1.07524e-05
-8.74059e-07 2.28024e-07 -1.127e-09
1.33125e-07 -2.5908e-07 6.34403e-11
-1.80122e-06 -7.16389e-07 -1.78695e-08
2.62424e-07 -2.59107e-07 -7.19116e-11
5.51263e-08 -5.45982e-08 -1.83088e-11
6.58905e-08 -1.13047e-07 -2.1851e-11
-2.22591e-07 1.16403e-10 -3.43186e-06
-1.63521e-07 -1.15349e-07 -5.43568e-11
-1.75322e-07 1.12697e-07 2.58618e-11
7.82755e-07 -5.28924e-10 -1.0212e-06
-1.27649e-07 -1.36115e-07 -3.98323e-11
-2.44714e-06 8.07115e-12 4.01185e-06
2.3731e-07 -1.26536e-07 -5.78605e-11
-7.02452e-07 -6.78598e-08 -7.80047e-10
2.05838e-07 -2.80884e-07 4.87434e-11
-1.18165e-06 1.01188e-06 -9.82826e-09
2.22374e-08 1.50823e-07 -3.88756e-12
9.83799e-08 1.97699e-07 3.99054e-12
-6.45273e-08 6.68038e-09 -5.90148e-12
-6.14385e-08 -9.30065e-08 -2.39664e-12
-1.11966e-07 7.80201e-08 1.23813e-11
-6.83445e-08 1.28055e-07 -1.86123e-11
5.07732e-09 -5.95793e-06 1.12502e-06
1.45965e-07 -4.3093e-07 2.48671e-11
-4.60196e-07 9.51356e-07 -6.01328e-10
-3.01821e-06 -5.15576e-09 1.18607e-06
-8.08648e-07 -5.05792e-07 -1.18611e-09
-1.94914e-06 -1.67421e-06 -1.37471e-08
-2.43918e-11 2.84458e-08 4.4597e-05
1.86969e-07 -5.50812e-08 -3.45215e-11
-2.59095e-08 7.56124e-08 2.51405e-12
-1.80144e-07 -8.65992e-08 -3.65175e-11
-3.13464e-08 7.83846e-08 5.85352e-12
-5.15848e-11 -9.82588e-07 9.14352e-06
-8.68712e-07 -1.12548e-11 -6.82002e-06
5.52267e-07 -2.13829e-07 -3.32937e-11
-1.48842e-10 1.17498e-06 4.8315e-06
1.05492e-07 7.75408e-08 2.79188e-12
2.97446e-06 8.14702e-10 -5.36417e-06
-1.38304e-08 6.15742e-07 -3.60409e-11
3.54764e-06 -1.81415e-09 1.80476e-06
-8.25613e-07 -1.16075e-07 -8.04837e-10
-6.18535e-07 5.03215e-08 -7.10307e-10
-6.53853e-07 9.57036e-07 -5.48364e-09
-4.57349e-10 4.09643e-07 -1.64388e-05
5.55706e-12 6.4316e-08 4.44252e-05
1.31126e-07 -1.56588e-08 -2.32108e-11
4.73881e-08 3.6799e-07 -8.00132e-11
-1.26166e-10 8.40131e-07 6.65871e-06
-8.25668e-08 1.7726e-07 -5.81941e-11
-6.78791e-11 3.47167e-07 1.18035e-05
2.81343e-08 2.28785e-07 -4.44993e-11
1.57993e-10 -6.95477e-07 -1.54843e-07
-1.53524e-07 3.03486e-07 7.53703e-12
9.29101e-08 1.37019e-07 -5.65332e-11
2.25853e-07 1.69893e-07 -1.39713e-11
5.5054e-11 1.89266e-06 -8.9544e-06
-4.00218e-07 -7.85433e-08 -2.66366e-10
1.1228e-07 4.01352e-07 -2.56156e-10
-1.49634e-06 1.73066e-06 -1.1315e-08
-1.15937e-07 -2.25506e-12 -4.45737e-05
5.72823e-07 -1.44778e-07 -1.81797e-10
1.19648e-07 -7.39691e-08 -1.94036e-11
-7.92674e-07 -4.70436e-10 1.91828e-06
1.46442e-08 -1.05403e-07 -1.57603e-11
-5.45397e-08 -1.63262e-07 1.82728e-12
7.97663e-07 2.30295e-07 -2.97754e-10
-1.59867e-10 -7.41376e-07 6.23386e-06
3.82476e-07 -5.94854e-11 -1.10873e-05
1.32027e-07 -1.09713e-07 -2.50245e-11
-2.03175e-07 -9.0117e-08 -6.0889e-12
-2.41786e-07 -8.20927e-08 -1.80275e-10
-2.7025e-07 2.98027e-07 -2.54738e-10
-1.35586e-06 -2.17158e-06 -1.15413e-08
-1.09657e-12 3.46876e-07 4.06913e-05
5.39536e-07 -1.17633e-07 -3.55607e-10
4.90302e-08 -1.90578e-07 -3.84587e-11
-6.15981e-08 -2.62007e-08 -6.41012e-12
-6.0023e-08 -6.0839e-07 -2.85645e-10
1.66738e-07 -4.20651e-08 -6.07661e-11
-7.07211e-10 -1.04965e-06 2.51288e-06
-2.8413e-06 -9.28275e-10 -5.59106e-06
-2.60992e-07 -6.67775e-07 -5.00752e-10
-5.02378e-07 -5.28941e-07 -4.13946e-10
-6.70124e-07 -2.74277e-07 -6.65452e-10
-4.22995e-07 -2.72882e-07 -3.99689e-10
-1.15213e-06 1.26073e-06 -8.16288e-09
-6.74538e-12 -3.92463e-07 -2.36996e-05
6.87479e-07 1.42285e-11 3.3494e-05
5.01902e-07 -4.19145e-07 -9.31378e-10
1.63736e-07 5.49829e-07 8.23427e-11
-1.63134e-07 7.09019e-07 -2.48712e-10
-4.89103e-07 7.49329e-07 -8.22284e-10
5.65821e-07 3.41456e-07 -9.8486e-11
1.15745e-10 3.87548e-07 -1.88098e-06
-5.44223e-08 5.20981e-07 -5.17449e-10
-7.38427e-07 8.70218e-07 -1.00789e-09
-8.21469e-07 1.58357e-07 -9.63959e-10
-3.35166e-07 -1.07022e-07 -2.18742e-10
-8.8666e-07 5.32591e-07 -4.75898e-09
1.95228e-12 1.35358e-07 1.49066e-05
3.24187e-07 3.67695e-12 -5.42898e-05
1.16347e-06 -2.5751e-06 -3.44634e-08
2.3202e-07 -1.9866e-06 -1.99657e-08
-1.63831e-06 -1.30804e-06 -1.11943e-08
5.84959e-07 -1.13795e-06 -7.65823e-09
1.26437e-06 -2.24119e-06 -1.46047e-08
-1.79626e-06 -3.39782e-07 -5.10057e-09
-1.96238e-06 2.82824e-10 1.03372e-05
-1.19814e-06 -2.30356e-06 -1.47711e-08
-8.498e-07 -1.60118e-06 -9.5001e-09
4.41201e-07 -1.77393e-06 -9.50183e-09
-2.49684e-07 -5.01717e-07 -2.7572e-09
4.11293e-06 -1.20195e-10 3.16835e-05
-4.89312e-07 -5.83965e-07 3.51461e-10
-2.39466e-07 -9.98102e-07 7.04775e-10
-8.44622e-08 -7.54388e-07 4.66967e-10
-3.38227e-07 -5.38329e-07 4.94457e-10
-4.99332e-07 -6.29824e-07 3.96112e-10
3.62737e-07 -6.04068e-07 3.2656e-10
1.81605e-07 -7.5349e-07 6.00935e-10
-1.3449e-07 -4.86568e-08 1.96037e-11
4.43435e-08 -3.78046e-08 5.53558e-11
1.94562e-06 6.58322e-07 2.66621e-08
-8.84513e-11 8.01761e-07 5.88261e-06
-3.08073e-07 -2.04824e-07 -2.33719e-11
-4.82393e-07 7.9481e-07 5.7723e-10
-1.58557e-07 2.67236e-07 1.32236e-10
-2.97639e-07 2.83745e-07 1.67167e-10
-7.54976e-08 3.33168e-07 1.63589e-10
5.60826e-08 2.53787e-07 1.33922e-10
-3.22181e-08 3.29242e-07 1.26365e-10
-4.65617e-07 2.95511e-07 2.12719e-10
-2.18618e-08 -1.55942e-07 1.80829e-11
2.07796e-06 -1.17913e-06 2.45949e-08
2.95213e-08 -3.82348e-12 -2.36253e-05
3.22767e-07 -4.16657e-07 2.72781e-10
-6.19137e-07 -5.55994e-07 5.25367e-10
-1.893e-07 6.76823e-08 -3.74705e-11
-1.44422e-07 -1.43784e-06 8.10503e-10
-5.09722e-07 8.87735e-12 -6.02629e-06
4.86654e-07 -2.34763e-07 4.08474e-10
2.19262e-07 -5.15984e-07 6.60078e-10
5.85782e-07 -3.58494e-07 7.30975e-10
-3.8673e-07 7.11794e-08 2.56156e-10
4.57334e-07 -3.02813e-07 7.46554e-10
7.87974e-07 1.58854e-06 7.83101e-09
9.69187e-07 8.64714e-12 6.50054e-06
4.86428e-07 -1.99913e-07 3.17667e-10
-1.39157e-07 -1.27481e-07 1.90711e-11
-4.33999e-08 2.631e-09 2.51736e-13
-2.07925e-07 3.78344e-08 3.20071e-12
-1.40431e-10 -1.49064e-06 -4.10654e-06
-1.28704e-07 1.89323e-07 -4.92186e-11
7.26988e-10 2.02235e-06 5.02624e-06
-2.41359e-06 -1.19983e-09 -6.02512e-06
-1.50018e-07 1.74125e-07 8.44394e-11
-6.69875e-07 3.51987e-10 8.42323e-06
3.44112e-07 -2.02692e-07 1.95534e-10
-4.65627e-07 9.15025e-07 4.80192e-10
4.43957e-07 1.65795e-07 4.61029e-10
7.14161e-07 -1.38831e-07 4.47672e-09
-7.20617e-12 1.12703e-07 -5.1792e-06
4.50651e-07 -1.17788e-07 3.17814e-10
-7.06187e-08 -1.123e-07 7.08001e-12
-7.08083e-08 -9.1409e-08 -2.19786e-12
-2.84152e-08 2.46787e-07 9.38602e-12
-7.42949e-07 -2.33019e-13 6.59481e-06
4.97953e-07 -1.67041e-07 8.78933e-11
-1.01998e-06 -1.1454e-10 -7.56018e-06
2.23412e-07 2.81431e-07 9.68378e-11
3.49983e-07 2.77693e-07 3.22756e-10
-5.81423e-08 -9.42793e-08 -1.0504e-12
5.99301e-07 1.86978e-07 4.99754e-10
1.81766e-06 2.64912e-07 1.07075e-08
-2.04278e-12 1.60722e-07 -4.45097e-05
-4.96374e-07 1.90754e-11 2.37891e-05
2.08663e-07 4.00321e-08 6.53795e-11
5.23687e-08 6.22268e-07 3.20313e-10
-7.3321e-08 4.19988e-07 2.56912e-10
6.82641e-08 2.64193e-07 1.41111e-10
-5.46865e-08 1.32847e-07 2.01644e-11
-5.32086e-08 2.72177e-07 1.04616e-10
-2.23397e-12 -3.13346e-07 -4.90725e-06
2.51886e-07 1.29269e-07 9.59681e-11
6.65136e-08 4.07931e-07 1.8748e-10
1.61897e-07 4.73455e-07 3.43705e-10
7.35912e-07 -2.21538e-07 4.25401e-09
3.51605e-07 4.44904e-12 1.2696e-05
2.74266e-07 -2.42961e-08 4.60458e-11
3.22223e-08 -3.45779e-08 1.19038e-12
-1.38613e-08 -3.99199e-08 1.0033e-12
-1.41984e-10 6.12071e-07 1.27967e-05
1.55263e-07 -7.29465e-08 1.71998e-11
6.39751e-07 1.85455e-07 1.90561e-10
2.74466e-08 1.14476e-08 4.36741e-13
2.07116e-07 4.47829e-08 1.52568e-11
3.32206e-07 -6.15308e-11 -2.93415e-06
-9.33764e-08 2.44278e-07 7.21583e-11
-1.36645e-08 6.39717e-08 8.63169e-12
1.07876e-06 7.55078e-07 6.67121e-09
-1.18294e-11 -1.43658e-07 -5.45218e-05
3.40192e-07 -9.01544e-08 1.44885e-10
3.00293e-08 4.99951e-08 9.78037e-12
-1.12395e-07 -7.09309e-08 -1.06423e-12
3.28488e-07 -5.19309e-07 1.51565e-10
-1.96018e-09 -2.86996e-06 -6.9319e-06
-3.52828e-09 4.63675e-08 -7.25571e-12
-1.27449e-07 -2.86713e-07 4.76294e-11
-4.12289e-08 -1.22405e-11 -6.72513e-06
-8.09688e-08 1.67155e-08 -1.82706e-12
2.00326e-07 4.76506e-08 7.19539e-11
2.03625e-08 -3.42061e-08 1.0026e-11
3.1224e-07 6.64855e-07 2.73052e-09
7.52811e-11 -9.60521e-07 -1.26e-05
7.81533e-08 -7.01185e-08 -7.75301e-11
2.10311e-07 1.07269e-07 1.99871e-10
1.61282e-07 2.51254e-07 1.50488e-10
2.15249e-07 -3.04606e-07 1.25675e-10
-5.2814e-07 1.19605e-07 6.08793e-11
-4.50062e-07 -4.38542e-07 1.21633e-10
-2.03506e-07 -2.54372e-07 1.13964e-10
1.57286e-07 -1.57796e-07 1.17992e-10
-5.08243e-08 6.40222e-07 3.28648e-10
2.25677e-07 9.28731e-08 1.46255e-09
9.48998e-12 5.81341e-09 4.02138e-05
4.6464e-07 -4.58085e-12 2.52511e-05
6.44789e-07 1.90964e-06 2.59118e-08
1.57207e-06 1.31544e-06 1.67532e-08
2.07393e-07 6.47214e-07 4.60613e-09
2.93458e-07 1.02478e-06 6.91739e-09
1.90619e-07 1.09009e-06 6.5355e-09
1.05915e-06 6.30229e-07 4.94791e-09
9.30204e-07 1.62055e-06 1.06532e-08
2.27527e-07 1.58961e-06 9.65191e-09
-8.66159e-07 1.32435e-06 8.14173e-09
7.92108e-07 7.10874e-07 8.28066e-09
1.71245e-06 -4.98095e-11 -5.24211e-05
3.82109e-08 -2.72959e-07 1.21989e-10
-7.01235e-08 -2.47869e-07 2.02151e-11
-1.48856e-07 -3.20795e-07 1.1804e-10
-4.45635e-08 1.98135e-07 2.16734e-11
-5.57915e-08 -4.68764e-08 1.37976e-12
-1.29348e-07 -5.37608e-09 2.51297e-11
-1.22672e-07 1.06091e-07 1.98533e-11
-3.33996e-07 -1.26967e-07 2.34733e-10
-1.09939e-07 3.40626e-07 1.94418e-11
8.91822e-07 1.34584e-06 1.4993e-08
9.32153e-08 -5.79927e-08 2.43266e-12
-5.2645e-08 6.88591e-08 -1.16626e-11
-5.20201e-08 -3.61085e-08 4.66995e-13
-2.50888e-07 -2.05204e-09 3.43828e-11
-3.74264e-08 1.36638e-07 2.57515e-11
-2.22082e-08 7.88902e-08 3.20704e-11
-6.81924e-08 1.34506e-11 -8.82974e-06
-4.63862e-08 1.47367e-07 4.17526e-11
-4.89836e-07 2.84233e-07 3.7884e-10
-2.49645e-07 -1.39474e-07 8.75778e-11
1.11632e-06 -3.46819e-07 1.24604e-08
1.26413e-07 -1.30929e-07 -1.37653e-11
-3.39407e-08 -2.0207e-07 2.15531e-11
-4.58738e-08 -8.50767e-08 3.24721e-12
6.24536e-08 -3.35717e-08 1.14912e-12
-4.06539e-07 8.76295e-08 3.96808e-11
1.85867e-08 1.38552e-07 2.59213e-11
-5.60699e-08 4.89431e-08 3.69848e-14
-5.89249e-08 4.09166e-07 3.83391e-11
-1.45807e-07 -1.35731e-07 3.25503e-11
5.36864e-07 1.16338e-06 5.56795e-09
6.6785e-12 2.22225e-07 -5.4067e-05
-2.56122e-07 -2.07974e-07 7.19701e-11
5.14737e-08 2.25366e-08 6.23559e-12
-7.456e-08 -6.15972e-08 4.11338e-12
-8.41496e-07 -2.18199e-12 7.49438e-06
1.63555e-07 -4.24952e-08 -2.34598e-12
9.3011e-08 6.00827e-09 -1.44236e-11
-3.56925e-08 -2.00895e-08 -6.80424e-13
3.42439e-08 -1.83421e-08 1.78625e-12
-2.6711e-07 4.9182e-07 1.17112e-10
-7.18858e-07 -3.26724e-07 5.96091e-10
3.45432e-07 -2.78274e-07 2.13812e-09
2.60378e-11 7.16425e-07 -9.62447e-06
-4.71423e-08 2.43415e-09 8.20925e-12
5.1792e-08 5.08649e-08 4.98244e-12
-2.00739e-07 -9.70278e-08 4.62421e-11
-6.32022e-08 6.8766e-08 2.69249e-13
-1.54788e-10 -1.40033e-06 5.99495e-06
3.03397e-07 -2.01151e-07 1.25807e-11
-1.80811e-06 -2.69171e-10 6.71562e-06
3.13975e-08 -6.28714e-08 8.75574e-12
-3.50418e-09 1.6304e-07 -1.03059e-11
-2.69262e-07 4.58402e-08 1.10952e-10
-1.45092e-07 2.56528e-08 7.95075e-11
7.29524e-07 3.43322e-07 4.11253e-09
1.61033e-11 5.94563e-07 3.67629e-05
2.38879e-07 -8.01915e-12 -5.14468e-05
5.60528e-08 3.63633e-08 6.732e-12
9.56177e-08 2.14096e-07 4.08723e-11
1.76295e-08 1.37972e-07 2.25825e-11
8.30658e-08 -8.7993e-08 -2.95542e-11
4.90685e-07 1.4024e-11 -2.55971e-06
-3.73048e-08 4.54191e-08 1.14139e-13
4.21503e-11 1.64464e-07 -7.53203e-06
-2.2111e-08 6.2794e-08 1.1289e-11
4.55616e-10 1.41644e-06 5.3572e-06
1.36648e-07 9.16158e-08 4.85463e-11
-1.05604e-07 -5.92415e-08 1.95003e-11
3.60902e-09 2.19789e-07 1.04466e-10
-2.42959e-07 5.46872e-07 -6.71634e-10
4.48905e-11 3.24892e-08 -5.02209e-05
2.93809e-07 -1.41708e-11 2.56291e-05
2.16823e-07 -1.21642e-07 2.77353e-11
-2.30146e-08 -4.80356e-08 1.92821e-12
7.48758e-11 -1.61064e-07 6.44589e-08
3.05777e-08 -1.31341e-07 1.71247e-11
-3.88317e-07 -7.22834e-08 5.96791e-11
-6.07426e-12 1.89337e-09 -2.48668e-06
3.26768e-07 2.28839e-07 4.41588e-11
1.02808e-07 -3.31837e-07 3.8424e-11
8.0625e-07 1.6454e-11 4.94326e-06
1.07892e-07 7.77482e-08 4.92918e-12
6.38823e-08 5.95182e-09 -8.152e-12
-2.79414e-07 -5.32077e-11 7.86309e-06
-9.58932e-08 8.61077e-08 4.59845e-12
4.14397e-07 -7.84753e-08 2.31327e-09
-4.76572e-11 -9.73809e-07 1.39105e-05
7.1426e-07 3.60142e-11 2.42076e-05
1.14725e-07 2.41972e-09 1.33717e-11
8.80397e-08 -8.23611e-08 -5.19746e-12
-1.59886e-07 -1.29164e-07 -7.09803e-12
2.43606e-06 -4.2023e-10 4.17081e-06
-3.63135e-08 -4.38222e-07 1.43256e-10
6.02244e-08 -1.99581e-07 1.04674e-10
-2.20861e-07 -6.92118e-07 5.58632e-10
-3.27564e-07 -2.80783e-07 1.55153e-10
-1.64557e-07 -8.07953e-08 4.81857e-11
-8.72349e-09 4.21604e-08 8.65108e-12
-2.52497e-07 6.7196e-07 -3.88921e-10
-3.53759e-07 5.45651e-12 5.02812e-05
3.6816e-07 -6.87237e-07 4.40452e-11
-8.55467e-09 -5.47474e-08 -3.37148e-11
2.06246e-07 3.2284e-07 2.83746e-10
-2.20876e-07 1.70824e-07 1.96147e-10
-2.24737e-08 1.10838e-07 7.41772e-11
-1.05522e-07 3.57879e-08 2.63781e-11
-1.66135e-07 2.14871e-07 1.63993e-10
9.37189e-08 1.56401e-07 8.1636e-11
2.90031e-07 5.63701e-07 5.78904e-10
1.20965e-07 2.18377e-07 1.04756e-09
-1.60997e-10 -1.47504e-06 -5.13162e-05
4.91688e-07 8.84209e-12 -7.43723e-06
1.30798e-06 9.56325e-07 1.56791e-08
9.39758e-07 8.67809e-07 1.07655e-08
-3.0117e-07 3.54925e-07 2.68341e-09
4.35595e-07 -1.37315e-07 -1.23584e-10
3.16817e-07 1.91263e-07 1.27485e-09
-1.71025e-07 6.94285e-07 3.47694e-09
-1.85875e-07 3.27171e-07 1.65164e-09
-1.03496e-07 7.10223e-07 4.14473e-09
1.75408e-07 6.20475e-07 3.87456e-09