<?xml version="1.0"?>
<VTKFile type="UnstructuredGrid" version="0.1" byte_order="LittleEndian" compressor="vtkZLibDataCompressor">
 <UnstructuredGrid GhostLevel="0">
  <Piece NumberOfPoints="619" NumberOfCells="619">
   <PointData>
    <DataArray type="Float64" Name="Elongation" NumberOfComponents="3"/>
0.000350194 0.00019708 6.67545e-05
5.75753e-05 0.000118646 3.8451e-05
0.000221852 0.000148632 6.63516e-05
0.00035762 6.31003e-05 0.000112413
0.000157873 1.20832e-05 1.25434e-05
-3.97725e-05 0.000192557 -3.5602e-05
-0.000126531 -0.000326379 -0.00014268
0.000239009 0.000166713 9.30156e-05
0.000331681 0.000169581 0.000126308
2.63005e-06 -3.9336e-06 -8.8808e-08
-1.0732e-06 -8.96438e-06 3.69426e-07
4.00439e-06 -7.9419e-06 -1.32489e-06
0.000238412 -9.38978e-05 -0.000214152
-0.00152304 -0.000859167 -0.000922142
6.91624e-06 2.78428e-05 1.44832e-05
0.000170742 7.04027e-05 5.6612e-05
0.00040591 -0.000544519 -0.00010739
-0.000232765 -0.000495683 -3.59351e-05
-0.000105945 -0.000621542 -0.00133502
-0.000113704 1.48652e-05 5.08547e-05
9.21658e-05 -8.12445e-06 -3.46795e-05
-9.47035e-06 0.000308431 0.00014871
-3.50568e-05 -0.000344716 -0.000179386
-4.59369e-05 7.33022e-05 -0.00253105
6.74249e-05 0.000318851 0.000168139
-1.13213e-05 -8.58506e-06 -4.67097e-06
0.000155607 0.00049966 9.23376e-05
-1.16148e-05 -0.000205828 -0.000102119
-9.83017e-05 -0.000406065 -4.89759e-05
-0.00245738 -0.00151144 0.000968869
0.000149533 -0.000113838 6.72134e-05
-0.00035788 -0.00094202 -0.000374347
-1.43552e-05 3.9148e-05 1.00927e-06
-0.000157662 -0.000235237 7.78702e-06
2.8608e-06 3.41537e-06 6.757e-06
0.00029427 -0.00015971 7.97475e-07
0.000331414 -3.59473e-05 -0.000200407
0.000280044 -7.75053e-05 0.00015535
-0.00023138 7.93806e-05 9.40435e-05
0.000172676 -8.03528e-05 -0.000189968
-0.000242944 9.23298e-05 -0.000168062
2.98015e-05 -6.21346e-07 3.92247e-05
-0.000256055 -0.000404601 -0.000264067
-8.90326e-05 0.000446124 6.68673e-05
-9.47871e-05 5.95727e-05 1.68098e-05
1.66991e-06 -1.52623e-08 -7.14435e-06
-0.00038735 -0.000406001 6.15091e-05
0.000409334 -0.00091722 -0.000923948
-1.23286e-05 3.23791e-05 3.50527e-05
-0.000158106 3.17595e-06 -6.02188e-05
-3.43346e-05 1.44335e-05 1.77041e-05
-2.45978e-07 -2.88453e-07 4.98784e-08
0.000429612 0.000527334 -0.000483387
-7.92874e-06 0.000524874 0.00175873
-4.70862e-05 -2.71128e-05 3.27187e-05
3.3917e-05 0.000376159 -0.000347573
2.05665e-06 7.77838e-06 8.91915e-06
0.00016259 6.94327e-05 -1.43979e-05
-7.88367e-05 -0.000214527 -0.000105871
1.25983e-05 -2.10266e-05 1.35647e-05
-0.00011806 5.29731e-05 1.87655e-05
1.12122e-05 -1.69665e-07 3.22284e-06
-0.000342975 -0.000126783 -0.000230863
-0.000328695 -7.46322e-05 -0.000588669
6.5162e-05 -7.08189e-06 1.17694e-05
-0.000722575 1.34491e-05 0.00161195
0.00104358 -0.000329577 4.89317e-05
7.06929e-06 -8.20613e-06 1.2912e-05
-0.000550872 3.99611e-05 -0.000126128
0.000814943 0.000180949 0.000549536
-1.53236e-06 5.18386e-06 7.18228e-06
0.00127179 -0.00170985 -0.000204886
-0.000310032 -4.49231e-05 0.000175063
-3.3193e-05 -0.000337818 0.000244936
-1.37918e-05 -6.31742e-05 -5.56414e-05
-0.00309771 -0.000260451 0.00248217
7.01364e-06 -0.000211429 -0.000128237
1.52097e-05 0.000131155 5.31311e-05
2.091e-05 -0.000756799 -1.576e-05
0.000113554 -2.5747e-06 -0.000291945
4.25124e-05 -2.64758e-06 -3.32533e-05
-4.89032e-06 -1.58312e-05 -1.55475e-05
6.64683e-06 2.75145e-05 2.52625e-05
0.000108723 9.90383e-05 -0.000153545
-3.03885e-06 -1.15813e-05 -1.04931e-05
-0.000134158 -0.000127778 0.000192855
-0.000348776 -0.000308934 -7.44003e-06
-0.000264254 3.69367e-05 0.000218492
-0.000173077 -0.000354545 -7.8469e-05
-0.000587441 -9.57032e-06 -0.00124619
-0.000411037 -0.00259848 0.00155779
-0.000610615 -0.00127079 0.00125428
-1.91011e-05 1.82639e-05 -7.65482e-07
9.00281e-05 8.02173e-05 -0.000128571
-0.000680835 -4.9661e-06 0.00070581
0.000680993 -0.000164253 0.00055308
0.00027191 -8.67147e-05 -0.00357341
-0.000207248 -0.000299288 -0.000417953
0.000651721 -0.000122462 0.000225153
2.56399e-06 -0.000196667 -0.00229554
-0.00228027 0.000818262 0.00230387
8.56013e-07 -4.96823e-06 4.11521e-06
-0.000134167 0.000176671 2.64379e-05
0.000182196 2.8926e-05 -9.95822e-05
0.000217047 -0.000729584 0.000619244
-4.10096e-05 -3.94942e-05 6.62738e-06
2.00279e-05 0.000131436 0.000112871
-0.000147275 0.000136276 -6.46329e-05
-2.25493e-06 7.72767e-06 -3.92545e-05
-0.0015926 -0.000190606 0.00083754
-0.00013391 -0.000393955 0.00015848
-1.39782e-05 -3.45195e-06 -7.45904e-06
-3.07619e-06 -8.23078e-05 -5.16383e-06
-3.18944e-05 -1.26766e-06 -1.81614e-05
-6.9939e-05 -0.000151301 -0.000130426
0.000312966 -0.00018229 2.53605e-05
0.00133387 0.00123233 0.00141823
0.00036648 -0.000120809 5.64312e-05
6.93727e-05 0.000194181 -0.000161643
0.00097945 0.00144611 -0.000756286
0.000410177 -0.000374648 2.08561e-05
-5.61535e-05 -0.00157269 0.00115929
4.89326e-05 0.000330587 0.000177528
-0.00127353 0.000382859 -0.00162074
-7.4168e-05 4.29134e-06 -4.67381e-05
-0.000349383 -0.000218044 -0.000284517
0.00332979 -0.00166317 0.00103196
0.00030449 0.000874396 -0.00129597
0.000506965 4.24572e-05 -0.000153507
0.000147762 -0.000129261 0.00021683
0.000565875 -0.000160942 -2.44666e-05
-0.000786012 0.00128182 -0.00236682
7.82429e-05 0.000169522 0.000109364
-3.06251e-06 -5.13356e-06 4.44434e-06
-2.86375e-06 7.93695e-10 3.33663e-06
-0.00039168 -2.12004e-05 -0.000298082
9.9731e-05 -5.10063e-05 -4.31389e-05
0.000211966 2.48026e-05 0.000305832
-0.000138233 -6.31419e-05 -8.0036e-05
-0.00113449 -8.44155e-05 -0.00168387
-3.22438e-05 -4.96353e-05 2.48491e-05
6.42308e-06 1.69741e-05 5.9836e-06
4.62943e-05 -4.5763e-05 1.10946e-05
1.69782e-05 -2.95548e-06 -2.47904e-05
0.00023327 -5.18804e-06 0.000171006
0.0034585 0.00179491 -0.00355311
2.69524e-07 -3.5324e-06 2.90862e-06
0.000118927 -0.000225776 7.17293e-05
0.000164456 0.000132734 0.000497315
-5.43671e-06 -1.46605e-05 -1.75959e-05
-1.30699e-05 -0.000198975 -0.000180735
-2.95302e-06 5.17556e-05 3.41898e-05
1.17194e-05 1.37833e-06 1.0228e-05
4.31273e-05 -2.77933e-05 -2.07212e-05
-0.000801247 -0.000271516 -0.000299112
-0.00146098 -0.0013522 -0.00173316
-0.000103383 0.00104087 -0.000825976
-1.22482e-05 -1.52568e-05 -2.44682e-06
-0.00165321 0.000866375 -0.00107752
3.00489e-05 3.65263e-05 5.0032e-05
3.38408e-06 2.51447e-05 -1.70961e-05
-0.00230261 -0.000759747 -0.000813085
-0.000659307 -0.00113654 -0.00116794
-2.38199e-06 6.42049e-05 -4.66556e-05
6.53444e-06 -1.892e-06 7.6892e-06
0.000121344 0.000224106 0.000390544
-0.00010824 -2.74754e-05 8.66695e-05
0.000310128 0.00157458 -0.00221741
-0.000187105 6.38082e-05 2.27773e-06
-8.09433e-05 0.000151588 4.36282e-05
0.000334276 0.00118309 0.000622182
-2.27012e-05 5.64462e-05 1.94966e-05
-8.75936e-05 0.000101386 -1.78202e-05
-9.05484e-05 9.07e-06 8.54304e-05
-3.57554e-05 -9.07923e-05 6.82829e-05
-9.43985e-05 2.81175e-05 -7.0563e-05
0.000953606 -1.1235e-05 -0.00063048
7.92499e-05 2.41718e-05 -8.27682e-05
0.000106811 -3.47676e-05 7.75287e-05
0.000121708 -0.000108571 0.000242965
0.000244364 -7.38017e-06 -0.000199246
0.000726569 -0.00173606 -0.00173683
0.000415244 0.000171393 -0.000217159
-0.000154894 0.00170716 -0.00149247
8.77212e-06 7.28755e-05 2.80796e-06
0.000163628 -3.28794e-05 0.000107053
-0.000459827 -0.000566495 -0.000718094
0.00012179 -0.000580028 -0.000132014
1.54647e-05 7.93464e-08 8.29279e-06
-0.000136904 -0.00013515 2.50399e-05
-0.000194875 0.000287383 -3.33519e-05
0.000304263 8.03394e-05 0.000296953
-6.22201e-05 -2.52514e-05 5.89314e-05
-0.00043946 -0.00013283 -0.000144215
3.41031e-07 2.41527e-06 -1.45569e-06
-0.000226956 2.08053e-06 -0.000340795
-4.23703e-06 1.74454e-05 -1.28616e-05
-0.000292838 0.000590385 0.00130485
0.00271918 0.000702137 0.000836274
-0.000653907 0.000215732 0.00058501
-2.61119e-05 -0.000395188 -0.000488589
9.78457e-05 -6.72261e-05 0.000106678
-0.0013497 -0.00104907 9.15605e-07
1.77942e-05 4.62075e-05 -2.60593e-05
-7.10249e-06 -4.0844e-05 2.83258e-06
-3.09008e-05 -4.31536e-06 -1.0644e-05
0.000392133 0.000276594 -0.000180548
-0.000879915 0.00223661 0.000691218
-0.000320803 0.000407332 -0.000936634
-0.000476262 8.70026e-07 0.000805685
0.000163239 0.000338802 0.000213333
-0.0025153 -0.000728068 0.00156407
0.00149157 -0.00128162 -0.00157991
-7.19038e-06 -6.99508e-07 1.27063e-05
-0.000418068 -0.000223768 -0.00322152
-9.48998e-05 0.000139033 6.70247e-05
-0.00430595 -0.00259579 -0.00499209
1.9468e-05 9.2977e-06 7.15256e-06
5.51881e-05 -0.000222681 1.77028e-05
-9.09651e-05 4.49845e-05 -4.28079e-05
-0.000570285 0.000150998 -0.000149839
2.09698e-05 2.57852e-05 7.3012e-06
7.70137e-06 -7.66774e-06 1.51216e-06
-1.33244e-06 -0.000113171 -1.72963e-05
-0.000310816 -0.000193148 -0.00143979
0.0013343 -0.000346295 0.000449363
-3.97649e-05 -8.40681e-05 -3.20542e-05
-0.00051975 0.000312481 -0.000104278
-2.82252e-06 -2.65404e-05 -9.55653e-06
-8.59096e-05 3.67001e-05 4.02461e-05
0.00099271 -0.000154072 -0.000950397
-0.00121703 -0.00159763 -0.00161381
-0.000333978 0.000293309 -0.000316076
-2.41407e-05 -9.66134e-06 -1.18457e-05
-1.12788e-05 -8.65281e-06 -8.76966e-06
-0.00019388 5.42418e-05 -4.24718e-05
-6.66531e-05 -8.31706e-05 0.000145284
-3.27543e-06 0.00238744 0.00153389
3.74039e-05 5.23765e-05 5.84848e-05
8.94228e-05 -8.84563e-05 -0.000171505
-0.00126672 -0.00252205 0.00251142
-5.98315e-05 0.000200697 -0.000142607
2.47097e-05 4.67529e-06 8.21873e-06
0.000114939 -3.41924e-05 9.12479e-05
0.000148411 0.000826842 -4.09391e-05
-2.95598e-06 1.02852e-06 -3.79087e-06
5.08316e-05 -0.000845361 -0.00075939
3.34999e-05 0.000155686 5.01374e-05
1.29463e-05 -0.000426421 -0.000371853
2.32506e-05 -0.000364984 1.51898e-05
-0.00150827 -0.00147755 -0.00184969
3.91318e-06 5.50097e-06 1.10225e-05
-0.000522784 -0.000492985 -0.000738527
0.000138877 9.04349e-06 -0.000177793
-0.000555878 0.000109478 -0.000389764
1.11146e-05 -0.000144692 -0.000119524
-0.00259783 0.00220179 0.00224458
0.00110521 0.000709498 -5.53953e-05
-4.29837e-06 -2.84893e-06 3.82885e-06
1.35409e-06 -0.000289638 -6.34147e-05
-9.90646e-05 -6.73867e-06 -0.0010589
9.41626e-05 0.000313749 9.60937e-05
-0.000183909 -0.000155106 3.6169e-05
1.56233e-05 1.2464e-06 1.69889e-05
0.000150408 0.000170797 4.16458e-05
-6.80539e-06 -3.76199e-05 -9.84671e-06
-0.000125218 8.12716e-05 -6.36473e-05
0.00087708 -0.00116835 0.00119665
-0.00243332 0.00091905 0.00298685
-8.98791e-06 5.68072e-06 2.27849e-05
1.04013e-05 -0.00031399 0.000148068
0.000401649 0.000649399 -0.000608995
0.00010256 -0.00017795 9.50314e-05
1.51473e-05 -2.95328e-06 -1.25343e-05
1.86573e-05 7.88483e-05 3.88852e-05
2.30755e-05 -7.45368e-06 -8.90681e-06
-7.64088e-07 1.81377e-06 -3.37001e-07
-1.38722e-05 -0.000170453 7.78323e-05
-1.58906e-05 -0.000135323 0.000163878
2.68637e-05 2.01378e-05 0.000137527
-0.000551576 -0.000755723 -0.00115481
-0.00143236 0.000718633 0.00144297
0.000206007 -0.000136479 -3.06976e-05
3.18946e-05 -4.19218e-05 2.49443e-05
-0.00038595 -4.46684e-05 0.0013088
4.21881e-05 3.25001e-05 -5.06243e-05
-1.70905e-05 2.23721e-06 -2.68683e-05
-1.66012e-05 -8.89705e-07 -0.00120441
-0.000755469 0.00023174 0.000405779
5.45471e-06 -6.49513e-05 -3.84614e-05
-2.77455e-06 1.17354e-05 -2.86154e-06
0.00028741 -0.000282303 -6.83295e-05
-9.24073e-05 0.000114535 -4.48051e-05
2.71867e-06 -2.81441e-05 -2.4129e-05
3.31838e-05 3.32024e-05 -4.34425e-06
0.00172565 0.000456565 -0.000339301
-7.2047e-05 2.91196e-05 -4.23724e-05
0.000443 -0.00137232 0.00052116
-0.00528763 0.00374943 0.00439366
0.00313506 0.00068736 -0.00282307
0.000593454 -1.49257e-05 0.000534287
0.00154869 0.000441605 -0.000926755
-0.000101808 -6.39505e-05 1.66704e-05
-4.93468e-05 -3.30427e-05 -3.31685e-05
-0.00084187 -0.0010531 0.00103007
0.000109534 -6.51241e-05 -8.53471e-06
-0.00108314 0.00127238 0.00105924
-1.16664e-06 -3.19968e-05 -2.42641e-05
-1.94434e-06 1.43378e-05 1.59874e-05
8.00795e-06 -6.31228e-06 -1.99608e-07
8.41569e-05 0.000164144 -6.97504e-06
1.15243e-05 -1.60072e-06 4.99178e-07
-0.00102892 -0.000468153 0.0013685
-3.56909e-06 -0.000367977 -4.4564e-05
3.08844e-05 -4.54218e-06 7.35347e-07
0.000483542 -0.00100486 -0.000735211
2.26568e-05 -6.2237e-07 0.000145619
4.77576e-05 1.52232e-05 1.62641e-05
2.19522e-05 0.000114487 -8.29664e-05
0.000345937 4.8949e-05 0.000199611
-0.00027895 -0.000166911 -6.21623e-05
2.8766e-06 -7.21929e-09 -2.50097e-06
1.17713e-05 -1.96672e-06 -7.45121e-06
-5.96266e-05 -0.000133973 5.92432e-05
-0.0011183 0.00290195 -0.000415888
-0.000256928 0.00107067 0.000513772
-7.44906e-05 -0.000131891 9.27865e-05
-1.51087e-05 -2.71119e-05 -4.16416e-05
4.7335e-05 -5.5724e-05 -1.51827e-05
-0.0010739 0.00219309 0.00020769
-0.00462921 0.00104981 0.00149703
-0.000923212 -0.00327865 -0.00352413
-0.000104263 1.66476e-05 4.71008e-05
5.74135e-05 2.14628e-05 6.59123e-05
8.75506e-06 3.54062e-06 4.71629e-06
0.000262132 0.00066288 -0.000220719
-3.84756e-05 2.36335e-05 -1.06716e-05
0.00074104 8.53142e-05 2.63468e-05
0.000138716 -0.000673251 0.000555859
-1.55184e-06 -2.14572e-05 1.17154e-05
-0.000389872 -0.00010259 -2.37018e-05
-3.20246e-06 -2.82271e-06 -3.65447e-07
-8.71261e-05 1.02234e-05 -0.00196193
-0.000119221 -1.64432e-05 -5.56152e-05
-3.58826e-05 -0.000256184 0.000420919
-0.00011512 3.51014e-05 0.000166604
-0.00308972 0.00566323 -0.000943794
-0.000117687 4.74419e-05 -0.000119096
9.95404e-05 -7.61621e-05 -0.000171844
-2.12531e-05 1.13762e-05 -1.25411e-05
-0.000124775 -0.000380217 0.00047347
6.41471e-05 7.32746e-05 1.11787e-05
-6.20725e-05 -9.23398e-05 -5.92309e-05
-2.45345e-05 0.000396215 -0.000395013
0.000120001 -0.000643788 -0.000154935
-0.000323182 0.000179968 0.000139124
2.53298e-07 -1.55189e-05 -1.66671e-05
-5.36213e-06 -2.388e-05 -3.26822e-06
8.05789e-05 7.52473e-05 5.43596e-05
0.000718067 5.65923e-05 -0.00069898
0.000131263 -0.00017043 6.48217e-05
2.3007e-05 -0.000259107 -0.000113189
0.000106813 -9.88037e-05 2.05649e-05
-0.000265369 -7.0901e-07 -0.000563578
-4.60109e-05 -0.000123859 -7.16685e-05
1.69312e-05 2.15197e-06 -2.05105e-05
8.86455e-05 0.000114783 -3.20478e-05
1.16986e-05 5.92755e-06 7.13591e-06
-2.67313e-07 1.34353e-05 1.78225e-05
-4.0388e-06 9.41704e-06 1.18399e-05
0.00160431 -0.00109027 -0.00142221
0.000296638 0.000551181 -0.00249799
0.00116774 0.00135931 -0.00143176
1.71223e-05 -2.75823e-05 -1.92814e-06
0.000269518 -5.94246e-05 1.69494e-05
0.000249988 0.000153657 -0.000267869
-0.0001099 5.68232e-07 0.000366981
0.000184261 0.000274145 -0.000109981
-0.00482908 -0.00579624 -0.00761626
-5.99669e-05 -2.93954e-05 2.05313e-05
0.000204585 0.000696474 0.00031812
0.00132349 0.00136321 0.000979917
-3.15626e-05 -0.000177039 -1.17677e-05
-0.00025119 0.00144976 -0.00112336
-2.40061e-05 -0.000119946 9.23948e-05
-0.000125102 -0.000223765 0.000199249
-1.18152e-06 -1.98579e-06 -1.38553e-06
-1.81193e-05 -1.56665e-05 -1.75557e-05
5.08829e-05 -1.10483e-05 4.71131e-05
-0.000105948 2.16772e-05 5.70932e-05
0.000368272 -0.000457179 -0.000567785
-0.000249871 0.000194004 -0.000206681
0.000801182 -0.000267897 -0.000251327
0.00131912 0.000964873 -0.000586889
-0.00243022 0.0021575 0.000693735
-1.17367e-05 0.000132434 -6.34862e-05
2.02512e-05 -8.87514e-05 1.55439e-05
-0.00360934 0.00165006 -0.00372913
-3.87171e-05 -6.28028e-05 -3.05952e-05
-0.00062075 -0.00133247 0.000771712
0.000573798 6.48099e-05 -0.000363851
-1.39113e-05 1.00998e-05 3.23307e-06
7.18742e-05 2.52858e-05 -2.56989e-05
-0.000269893 0.000122963 -0.00348825
-5.21078e-05 -0.000334213 0.000269188
-5.19518e-05 -7.55341e-06 2.99585e-05
-0.00131913 -0.00155032 0.00261792
0.000824928 -0.00586591 0.00396082
0.000237979 0.000909674 -0.000584934
-1.74995e-05 -1.50684e-05 1.53612e-05
-4.96651e-08 -4.02706e-06 -4.94845e-05
0.00127899 -0.00226994 0.000473822
-0.000176234 0.00011736 -3.83734e-05
0.00195931 -0.00124622 -0.00296047
-1.29456e-06 9.33931e-06 4.26713e-07
1.96011e-05 1.48887e-05 6.66169e-06
-3.138e-05 -2.66757e-05 2.98096e-05
-2.23692e-06 7.1071e-05 0.000823209
0.000211993 -2.95376e-06 0.000308078
-1.24427e-05 -1.37631e-06 -3.64303e-06
-7.87183e-05 2.59088e-05 4.89436e-05
0.000217831 -0.000630966 0.000209519
0.000150352 0.00327861 -0.00114528
5.81066e-05 -1.96545e-05 -9.63363e-05
-3.85621e-05 3.3815e-05 3.34142e-06
7.46965e-05 6.62438e-05 5.22672e-06
0.00170958 -0.00128172 0.000312179
1.45503e-05 0.000526287 -0.000536336
-2.50554e-05 5.13185e-05 0.00011392
-2.38154e-05 -0.000138592 1.67895e-05
0.000408256 -0.000739322 -0.00057628
-0.000627251 -0.0033991 -0.00231834
0.00184411 -0.0003235 0.0068961
-4.84206e-05 -2.06486e-05 1.7672e-05
-0.000206537 0.000455947 -0.00047737
0.00161746 -0.00385329 -0.00231116
-5.89126e-05 5.85116e-06 -1.91488e-05
-1.27278e-06 5.35414e-06 -4.52422e-07
-0.00164802 -0.000715875 0.000770956
3.42298e-05 -0.000125891 -4.73352e-06
0.000168609 -0.000298585 -0.00153092
0.000887656 -2.25926e-05 -0.000444157
0.00465291 0.00108511 0.00080727
0.000233628 0.00048903 -0.000228012
-2.7157e-05 -4.15831e-05 1.20687e-05
0.000374509 0.000423325 0.00022142
-0.00168623 0.000495585 0.00143711
9.471e-07 -9.98229e-06 -7.20097e-06
0.00142817 0.00307371 0.00190243
3.64309e-05 -1.24089e-05 -3.26866e-05
0.00151885 -0.00078734 -0.00101835
0.00170788 -0.00179923 0.000629076
0.000129233 -0.000304418 -9.88163e-05
-1.48278e-05 -1.84233e-06 3.87905e-07
-0.000218656 -0.000136998 1.11244e-06
0.000111122 -0.00124018 0.00098468
0.00114283 -0.000200168 -0.000738551
1.80175e-07 3.80849e-07 2.13799e-08
4.9034e-05 -1.84859e-05 3.16768e-05
-0.000761157 0.000158221 0.000576205
-9.28571e-06 -1.69499e-06 -1.78212e-06
-9.11517e-05 -7.76785e-05 5.13371e-05
0.00223535 0.000205962 -0.000380962
0.00303994 0.00282624 -0.00202329
2.07055e-05 -6.41702e-05 3.75792e-05
-2.97475e-07 2.11331e-07 2.62e-06
-3.56543e-06 1.92445e-06 2.48095e-07
1.39297e-05 3.37976e-06 -1.53605e-06
5.89279e-05 -2.77011e-05 1.93354e-06
-0.000417787 0.000701952 -0.00234734
2.17507e-05 -6.98656e-06 -1.52046e-05
-0.000580773 0.00084268 -0.00206447
0.000154809 7.65145e-05 -2.52111e-05
6.03641e-05 -9.79993e-06 -1.88287e-05
3.78537e-05 -1.40415e-05 -3.3492e-06
-6.89897e-05 -3.55033e-05 6.00813e-05
6.66052e-05 6.22343e-05 -3.48756e-06
-0.00141145 0.000351373 0.000474628
-0.000619168 0.000211282 -5.51755e-05
-1.11359e-05 1.3966e-05 1.45272e-07
-0.000283294 -0.000386102 -0.00213638
-0.000704935 0.000281686 0.00218008
4.95803e-05 0.000193958 -0.000167817
0.000158009 -0.000587602 -0.000492086
-1.35272e-06 8.54059e-05 -5.33402e-05
-0.00341866 0 0.0039653
6.63207e-06 5.33969e-05 0
-3.51897e-06 -6.19902e-06 0
-5.38417e-05 1.81948e-05 0
-1.81575e-05 6.77229e-07 0
1.02627e-06 1.73933e-05 0
-0.000135689 8.12245e-05 0
0.000204316 -0.000237619 0
2.78653e-05 -7.62991e-05 0
0.000144613 0.000155657 0
-0.000213177 -8.99139e-05 0
0.000241349 -0.0001859 0
-8.19507e-06 2.0869e-05 0
3.37671e-06 -5.66231e-06 0
1.74875e-06 6.56131e-07 0
1.38221e-05 -6.76718e-06 0
-0.000720024 -0.000161123 0
-1.63439e-05 5.32017e-05 0
8.42792e-06 1.28516e-05 0
0.000124477 0.000722473 0
7.49247e-05 0.000795746 0
3.85494e-06 3.67254e-05 0
1.24835e-06 1.44739e-05 0
2.10752e-05 -5.11874e-06 0
0.000101903 8.07418e-05 0
5.10729e-07 1.48818e-05 0
1.90532e-05 -1.08962e-05 0
-1.72216e-05 -2.64639e-05 0
2.29045e-05 -4.07224e-05 0
3.69864e-05 0.000175699 0
6.06358e-05 -0.000156316 0
1.47168e-05 0.000137467 0
8.71131e-06 1.18879e-05 0
-4.75128e-06 3.57267e-06 0
1.31407e-05 -6.43075e-06 0
1.34562e-06 -1.52502e-06 0
-0.00105504 5.2735e-05 0
0.000228216 0.000100885 0
9.56056e-06 -1.92446e-06 0
5.17358e-05 1.27576e-05 0
1.3958e-05 4.53328e-06 0
1.4135e-05 3.83711e-06 0
1.9903e-06 1.12306e-06 0
-2.42484e-05 -3.08545e-05 0
-3.48755e-06 -5.15124e-06 0
-5.3736e-06 1.36572e-05 0
-4.73323e-06 -1.4528e-05 0
-3.04392e-08 5.49378e-07 0
-5.1569e-06 -3.56768e-06 0
3.22373e-05 0.000143936 0
-8.95195e-06 0.000206086 0
1.48119e-05 -0.000289224 0
8.2116e-05 -4.72405e-05 0
-1.7358e-05 -0.0005917 0
5.89657e-07 1.46644e-05 0
1.62314e-05 -0.000749085 0
3.92249e-06 5.74096e-05 0
-0.000130189 4.03509e-06 0
1.34768e-05 -5.80865e-06 0
3.34724e-05 1.29983e-05 0
9.56056e-06 1.13099e-05 0
5.34655e-06 -1.39448e-05 0
0.00182146 -0.00126525 0
-4.4194e-06 1.39927e-05 0
0.000128624 5.73462e-05 0
0.000166886 0.000171563 0
-2.86424e-05 0.000235263 0
-5.62888e-05 0.00020794 0
0.000154649 9.22553e-05 0
8.42308e-06 2.17631e-05 0
9.4789e-05 -3.61835e-05 0
0.000163995 -0.000131549 0
1.59235e-05 6.19495e-06 0
0.000166017 0.00028395 0
-1.22874e-05 -4.25917e-06 0
6.89441e-05 0.000476773 0
-9.61493e-06 1.14796e-05 0
7.36076e-05 3.42429e-05 0
-1.65646e-05 1.05953e-05 0
-1.63592e-06 9.56272e-06 0
3.33448e-05 -6.72557e-05 0
-5.38197e-06 -0.000252951 0
-0.000126611 0.000185521 0
-0.000742564 -0.00147492 0
0.000344746 0.000314331 0
2.77303e-05 0.000122898 0
0.000650713 -0.0019565 0
1.45004e-05 2.25124e-06 0
3.4814e-05 -2.2235e-05 0
-1.4175e-05 3.80284e-06 0
-2.07589e-05 1.06235e-06 0
-0.000280881 -4.48913e-05 0
-7.04261e-05 -2.85967e-05 0
-9.89739e-06 9.10717e-06 0
-1.69822e-05 4.16693e-06 0
0.000431274 0.0003502 0
0.000160634 -0.000327013 0
1.14646e-05 1.11785e-05 0
1.99489e-05 0.00105942 0
0.00027344 0.000235882 0
-0.000140008 -1.81761e-05 0
-0.00189118 0.00098537 0
6.42885e-05 0.000110782 0
0.000859764 -0.000222258 0
5.09193e-06 -1.43417e-05 0
-0.000661278 -0.000215654 0
1.04548e-05 5.47919e-05 0
-1.46218e-05 1.26044e-06 0
0.000131354 -3.27494e-05 0
1.01299e-07 5.26926e-07 0
-4.96005e-07 -0.000127646 0
-0.000305855 -1.00484e-05 0
0.000194191 1.06501e-05 0
-0.000148472 -0.000423776 0
-4.07562e-05 -0.00036096 0
0.000318604 -0.000534676 0
-0.00108692 -4.00029e-06 0
-0.000488958 0.000345148 0
0.000248565 -0.000677734 0
2.64495e-06 -8.78721e-07 0
1.34019e-05 -2.55045e-06 0
1.17719e-05 -1.19352e-05 0
0.000160146 -0.000164006 0
7.8695e-05 0.0001315 0
1.2585e-05 2.47024e-07 0
-0.00074634 0.000729975 0
-0.0022224 -0.00165575 0
0.000140467 -0.000162091 0
0.000671294 -3.41707e-05 0
-2.41679e-05 9.05228e-05 0
3.26666e-07 -2.73897e-07 0
8.1508e-06 5.99335e-06 0
-0.00131146 -0.00144578 0
1.17781e-05 8.75569e-06 0
    <DataArray type="Float64" Name="norm"/>
0.000407349
0.000137369
0.000275158
0.000380146
0.000158831
0.000199819
0.000378009
0.000305893
0.000393349
4.73268e-06
9.03595e-06
8.99246e-06
0.000333944
0.00197691
3.21375e-05
0.000193169
0.000687602
0.000548792
0.00147642
0.000125442
9.8809e-05
0.00034254
0.000390177
0.00253253
0.000366719
1.49564e-05
0.000531413
0.000230062
0.000420655
0.00304333
0.000199592
0.001075
4.17092e-05
0.000283292
8.09357e-06
0.000334817
0.00038896
0.000329492
0.000262073
0.000269001
0.000309502
4.92655e-05
0.000546807
0.000459809
0.000113208
7.33693e-06
0.0005645
0.00136474
4.92858e-05
0.000169216
4.12387e-05
3.82359e-07
0.000834452
0.0018354
6.3425e-05
0.000513276
1.20118e-05
0.00017738
0.000251885
2.80149e-05
0.000130753
1.16674e-05
0.000432439
0.000678338
6.6594e-05
0.00176654
0.00109548
1.68534e-05
0.000566538
0.000999431
8.9892e-06
0.0021408
0.000358867
0.000418589
8.53062e-05
0.00397805
0.000247378
0.000142324
0.000757252
0.000313262
5.40379e-05
2.27214e-05
3.79397e-05
0.000212616
1.59206e-05
0.00026743
0.000465983
0.000344867
0.000402263
0.00137774
0.00305741
0.00188705
2.64388e-05
0.000176268
0.000980677
0.00089254
0.00358479
0.000554265
0.000700308
0.00230395
0.0033432
6.50776e-06
0.000223411
0.00020964
0.000981257
5.73193e-05
0.000174403
0.000210804
4.00714e-05
0.00180947
0.000445251
1.62155e-05
8.2527e-05
3.67246e-05
0.000211647
0.000363071
0.00230417
0.000389983
0.000262006
0.0019033
0.000555915
0.0019546
0.000378415
0.00209649
8.7771e-05
0.000500561
0.00386246
0.00159274
0.000531395
0.000292501
0.000588826
0.00280405
0.000216379
7.4488e-06
4.39707e-06
0.000492662
0.000120037
0.000372932
0.000171759
0.00203215
6.41935e-05
1.91097e-05
6.60341e-05
3.0192e-05
0.000289284
0.00527329
4.58373e-06
0.000265072
0.000540358
2.35394e-05
0.000269123
6.20992e-05
1.5616e-05
5.53336e-05
0.000897321
0.00263946
0.00133279
1.97174e-05
0.00215517
6.88499e-05
3.05939e-05
0.00255741
0.00175798
7.94021e-05
1.02666e-05
0.00046634
0.000141359
0.00273723
0.000197699
0.000177297
0.00137788
6.38877e-05
0.000135164
0.000124818
0.000119098
0.000121164
0.00114324
0.000117113
0.000136485
0.000292631
0.000315384
0.00256093
0.00049896
0.00227286
7.34552e-05
0.000198281
0.00102373
0.000607201
1.75481e-05
0.000193997
0.000348824
0.00043268
8.93414e-05
0.000481214
2.84057e-06
0.000409456
2.20843e-05
0.00146183
0.00293024
0.000903532
0.000628947
0.000159604
0.00170945
5.59541e-05
4.15536e-05
3.29663e-05
0.000512708
0.00250089
0.00107057
0.000935924
0.000432371
0.0030501
0.00252259
1.46164e-05
0.00325623
0.000181186
0.00708522
2.2729e-05
0.0002301
0.00011014
0.000608668
3.40281e-05
1.09723e-05
0.000114493
0.00148557
0.0014499
9.83674e-05
0.000615352
2.83494e-05
0.000101721
0.00138292
0.00257643
0.000545413
2.85733e-05
1.6703e-05
0.000205756
0.000180187
0.00283773
8.69645e-05
0.000212685
0.0037779
0.000253369
2.6457e-05
0.000150686
0.000841053
4.91593e-06
0.00113749
0.000166956
0.00056593
0.000366039
0.00280702
1.29255e-05
0.00103042
0.000225785
0.000687679
0.000188004
0.00407857
0.00131452
6.42281e-06
0.000296502
0.00106355
0.000341378
0.000243287
2.31141e-05
0.000231363
3.94782e-05
0.000162282
0.00188846
0.00396068
2.51437e-05
0.000347307
0.000976686
0.000226309
1.98814e-05
8.98733e-05
2.58334e-05
1.99679e-06
0.000187895
0.000213121
0.000141565
0.00148625
0.00215644
0.000249013
5.82831e-05
0.00136525
7.34773e-05
3.19217e-05
0.00120452
0.000888309
7.56816e-05
1.23938e-05
0.000408617
0.000153834
3.71711e-05
4.71427e-05
0.00181699
8.85107e-05
0.00153334
0.00783081
0.00427444
0.00079867
0.00185805
0.000121377
6.80226e-05
0.0016967
0.000127717
0.00197842
4.01734e-05
2.15627e-05
1.01986e-05
0.000184592
1.16457e-05
0.001775
0.000370683
3.12252e-05
0.0013357
0.000147373
5.26978e-05
0.000143083
0.000402384
0.000330963
3.81179e-06
1.40696e-05
0.000158158
0.00313766
0.00121504
0.000177633
5.1936e-05
7.46745e-05
0.00245073
0.00497723
0.00490116
0.000115613
9.00077e-05
1.05561e-05
0.000746217
4.63983e-05
0.0007464
0.000884018
2.44963e-05
0.00040384
4.28451e-06
0.00196389
0.000132579
0.000494055
0.000205528
0.00651991
0.000174025
0.000212695
2.71734e-05
0.000619926
9.80254e-05
0.000126047
0.000560021
0.000672954
0.00039521
2.27748e-05
2.46918e-05
0.000122923
0.00100369
0.000224674
0.000283686
0.000146949
0.000622929
0.000150314
2.66829e-05
0.000148527
1.49303e-05
2.23208e-05
1.56581e-05
0.00240524
0.00257521
0.00229374
3.25219e-05
0.000276511
0.000397313
0.000383084
0.000348142
0.0107203
6.98688e-05
0.000792548
0.0021378
0.000180215
0.00185117
0.000153298
0.000324687
2.69426e-06
2.96977e-05
7.02195e-05
0.000122289
0.000816711
0.000377875
0.000881378
0.00173652
0.00332296
0.000147333
9.23501e-05
0.00544578
7.98703e-05
0.00166023
0.000682519
1.74924e-05
8.04096e-05
0.00350084
0.000432291
6.04446e-05
0.00331619
0.00712583
0.00110738
2.77354e-05
4.96481e-05
0.0026482
0.000215184
0.00376249
9.43826e-06
2.55001e-05
5.08419e-05
0.000826274
0.000373981
1.30379e-05
9.62461e-05
0.00069962
0.00347614
0.000114208
5.1397e-05
9.99757e-05
0.00215938
0.000751562
0.000127433
0.000141622
0.00102243
0.00416198
0.00714574
5.55267e-05
0.000691685
0.00477551
6.22223e-05
5.52191e-06
0.0019552
0.000130547
0.00156885
0.000992834
0.00484548
0.000587981
5.11108e-05
0.000607032
0.0022703
1.23449e-05
0.00388671
5.04936e-05
0.00199094
0.00255926
0.000345161
1.49469e-05
0.000258031
0.00158745
0.00137535
4.2186e-07
6.1233e-05
0.000967681
9.6059e-06
0.0001303
0.00227692
0.00461764
7.71927e-05
2.64529e-06
4.05924e-06
1.44159e-05
6.51429e-05
0.00248541
2.74424e-05
0.00230422
0.000174517
6.39873e-05
4.05128e-05
9.81316e-05
9.12224e-05
0.00153001
0.000656546
1.78627e-05
0.00218939
0.00230847
0.000261228
0.000782554
0.000100703
0.00523553
5.38072e-05
7.12819e-06
5.68329e-05
1.81701e-05
1.74236e-05
0.000158142
0.000313381
8.12283e-05
0.000212467
0.000231363
0.000304644
2.24204e-05
6.59272e-06
1.86779e-06
1.53898e-05
0.000737832
5.56555e-05
1.53686e-05
0.000733118
0.000799265
3.69272e-05
1.45277e-05
2.16879e-05
0.000130014
1.48906e-05
2.19488e-05
3.15741e-05
4.67219e-05
0.00017955
0.000167665
0.000138253
1.47381e-05
5.94463e-06
1.46299e-05
2.03381e-06
0.00105636
0.00024952
9.75233e-06
5.32856e-05
1.46758e-05
1.46466e-05
2.28529e-06
3.92427e-05
6.22079e-06
1.46763e-05
1.52796e-05
5.5022e-07
6.27073e-06
0.000147502
0.000206281
0.000289603
9.47349e-05
0.000591955
1.46763e-05
0.000749261
5.75435e-05
0.000130252
1.46753e-05
3.59077e-05
1.48094e-05
1.49347e-05
0.00221779
1.4674e-05
0.000140829
0.000239342
0.000237
0.000215424
0.000180076
2.33363e-05
0.00010146
0.000210237
1.70861e-05
0.000328921
1.30047e-05
0.000481732
1.49742e-05
8.11829e-05
1.96633e-05
9.70164e-06
7.5068e-05
0.000253008
0.000224607
0.0016513
0.000466534
0.000125987
0.00206187
1.46741e-05
4.13087e-05
1.46762e-05
2.07861e-05
0.000284445
7.60106e-05
1.34499e-05
1.7486e-05
0.000555551
0.000364336
1.60123e-05
0.0010596
0.000361123
0.000141183
0.00213249
0.000128085
0.000888027
1.52188e-05
0.000695554
5.57804e-05
1.4676e-05
0.000135375
5.36575e-07
0.000127647
0.00030602
0.000194483
0.000449032
0.000363254
0.000622405
0.00108692
0.000598504
0.000721878
2.7871e-06
1.36424e-05
1.67638e-05
0.000229226
0.000153248
1.25875e-05
0.00104398
0.00277139
0.000214487
0.000672163
9.36935e-05
4.26299e-07
1.01171e-05
0.00195198
1.46761e-05
   </PointData>
   <CellData>
   </CellData>
   <Points>
    <DataArray type="Float64" Name="Points" NumberOfComponents="3"/>
9.96229 1.58931 0.234339
10.1546 1.37618 0.230512
10.1675 1.57978 0.232653
10.1688 1.78419 0.230454
10.1958 2.1903 0.235571
10.2221 2.43108 0.230615
10.3631 1.35883 0.228832
10.3676 1.56728 0.230936
10.3789 1.78225 0.230802
10.3824 1.98804 0.233325
10.3977 2.20998 0.237003
10.4463 2.41099 0.227996
10.2006 2.77759 0.211772
10.5688 1.34304 0.223395
10.5723 1.54782 0.225998
10.5918 1.75265 0.226266
10.5975 1.97031 0.233868
10.5985 2.20266 0.235902
10.5866 2.39953 0.318886
10.6459 2.39389 0.228179
10.4157 2.65033 0.218209
10.7712 1.34758 0.222967
10.7779 1.54753 0.222574
10.7674 1.60366 0.311299
10.7942 1.74609 0.225453
10.7972 1.96803 0.228738
10.798 2.19181 0.233096
10.7848 2.37699 0.318071
10.8456 2.39219 0.227152
10.8626 2.59924 0.219181
10.965 2.58944 0.218342
10.9565 1.17519 0.225736
10.9892 1.59406 0.2359
11.0015 2.01137 0.236324
10.9504 2.29746 0.326699
11.0118 2.21433 0.236961