<?xml version="1.0"?>
<VTKFile type="UnstructuredGrid" version="0.1" byte_order="LittleEndian" compressor="vtkZLibDataCompressor">
 <UnstructuredGrid GhostLevel="0">
  <Piece NumberOfPoints="1100" NumberOfCells="1100">
   <PointData>
    <DataArray type="Float64" Name="Elongation" NumberOfComponents="3"/>
2.61095e-06 -4.82764e-07 8.78276e-09
2.11505e-06 -1.04624e-06 5.37204e-09
7.52196e-07 -8.98532e-07 2.56498e-09
2.50213e-06 -2.08539e-06 8.78874e-09
1.0912e-06 1.22099e-06 -1.20547e-09
-1.66363e-06 8.76629e-10 -9.86158e-06
3.07609e-08 -4.99171e-06 1.21592e-08
9.3916e-07 -2.52462e-06 7.96158e-09
1.2748e-06 -2.26091e-06 8.79513e-09
8.93421e-07 -3.21164e-06 1.3529e-08
-1.16402e-05 -3.58954e-06 -9.97553e-08
1.91681e-06 1.23512e-06 5.57903e-09
6.59231e-07 3.90303e-07 8.70508e-10
1.69731e-06 1.16763e-07 1.13367e-09
1.6095e-07 1.54724e-06 2.13319e-09
1.1055e-06 -2.6942e-07 1.52065e-09
3.09514e-07 -4.09896e-07 2.78987e-10
6.33022e-07 1.34149e-08 3.15444e-10
9.22475e-07 -1.42009e-06 3.77114e-09
-1.38357e-06 -3.60266e-06 8.26215e-09
-9.11947e-06 -3.99928e-06 -5.61617e-08
9.95232e-11 -2.44852e-07 -4.2711e-07
2.03021e-06 7.36728e-07 5.7875e-09
2.15125e-06 -4.64731e-09 -2.1251e-06
1.84069e-07 -1.55995e-07 -1.75001e-10
-5.42794e-09 4.40711e-06 -6.77149e-06
-1.65675e-07 5.86631e-08 -1.52186e-10
1.06939e-06 -4.76049e-07 1.28198e-09
9.86384e-07 -7.20183e-07 1.20958e-09
-6.88098e-08 -1.12812e-06 9.37092e-10
4.74985e-07 -7.83049e-07 1.03263e-09
1.76993e-07 -1.1019e-06 1.43693e-09
-7.07124e-07 -2.4379e-06 6.22213e-09
-5.4845e-06 -3.72586e-06 -2.87232e-08
-8.97754e-08 -1.24985e-11 -3.7379e-05
1.24194e-06 1.99548e-06 4.97514e-09
3.4515e-06 -8.85095e-09 -4.71764e-06
-2.69938e-07 3.91251e-07 6.61711e-10
8.43114e-07 3.11491e-07 6.44648e-10
5.83847e-07 -1.74149e-07 2.61627e-10
9.65235e-08 -3.90805e-07 1.77091e-10
-8.22437e-09 -4.20691e-07 1.11908e-10
-2.23393e-08 -6.88184e-07 1.91428e-10
-2.90991e-07 -2.80603e-07 1.57319e-10
-1.03625e-06 1.28759e-07 -1.91065e-10
-4.35038e-06 -2.74285e-06 -1.78626e-08
-2.38389e-06 6.60753e-10 2.21291e-05
1.71137e-06 7.19596e-07 4.04312e-09
-1.03417e-09 7.13729e-07 6.19128e-10
-3.67717e-11 -3.00998e-07 -1.01545e-05
2.76896e-07 4.56047e-07 4.13317e-10
-5.28575e-07 -9.87409e-08 1.17706e-10
3.33144e-07 1.4331e-07 1.32741e-10
-1.26999e-06 7.10354e-10 -4.34218e-07
-3.78611e-07 -6.55311e-07 6.21885e-12
-5.45628e-09 -3.5342e-07 1.19868e-10
-6.50066e-07 -3.0283e-07 5.27237e-10
-1.56616e-06 -1.65002e-06 2.95738e-09
-3.589e-06 -1.19661e-06 -2.36436e-08
1.56653e-06 2.1006e-06 6.76968e-09
-4.44611e-07 1.19496e-06 1.81489e-09
8.67847e-07 7.11716e-07 1.09471e-09
-6.26227e-07 -8.45503e-07 1.99816e-10
5.35532e-08 1.00053e-07 6.57503e-12
-1.13033e-07 -3.08582e-08 3.30287e-11
-1.32209e-07 -6.89336e-07 1.61642e-10
-1.19645e-06 -4.52307e-07 1.14469e-09
-2.3379e-06 -9.54601e-07 5.85665e-09
-4.65683e-06 -3.50062e-06 -2.19663e-08
-5.48104e-07 4.61809e-11 3.76523e-05
-2.05737e-10 4.44197e-07 -2.04915e-05
-2.29911e-07 1.54245e-06 9.11771e-10
7.65275e-07 -2.90922e-10 -5.15891e-06
-5.17847e-07 5.05934e-09 3.91097e-10
2.24602e-07 7.91082e-07 8.40811e-10
-5.37335e-07 1.01597e-06 1.15609e-09
-7.17927e-07 5.18796e-07 7.55279e-10
1.31928e-06 6.74128e-10 -5.4353e-06
-6.07279e-07 7.17446e-08 1.72742e-10
-1.68781e-07 -4.58744e-07 -1.02292e-11
-1.40318e-06 -4.0131e-07 1.66295e-09
-3.76198e-07 -1.45267e-06 2.641e-09
-3.87042e-06 -3.61979e-06 -3.31319e-09
-4.58115e-07 -1.96065e-11 -3.44951e-05
4.67314e-11 -2.51491e-08 2.44716e-05
-3.94919e-07 4.48182e-07 7.95153e-10
-5.62465e-07 3.38233e-07 1.07822e-09
-8.24532e-07 4.85507e-07 1.0075e-09
-6.60432e-07 -2.29154e-07 7.26287e-10
1.1184e-08 -3.7292e-07 1.31827e-10
-6.63213e-09 -1.11256e-06 7.7856e-10
-8.7919e-07 -2.62672e-07 9.18116e-10
1.01278e-07 -4.93598e-11 -1.21023e-06
-1.45127e-06 3.89649e-08 1.62047e-09
2.73393e-11 2.37789e-08 1.54658e-06
-1.47504e-06 1.90552e-09 2.05336e-06
-4.30321e-06 -2.34621e-06 1.12464e-08
-3.54825e-06 -5.281e-06 1.21388e-08
1.08568e-07 1.05047e-11 -9.35114e-06
4.7178e-11 3.45956e-07 2.91544e-05
-9.70917e-07 5.82535e-07 3.32575e-09
-3.42445e-07 2.05479e-07 6.34665e-10
-1.50591e-06 8.3158e-07 4.5251e-09
-1.64263e-06 6.56905e-07 3.80759e-09
-3.07663e-06 -1.27524e-06 6.11537e-09
-1.79707e-06 -8.88123e-07 3.78523e-09
-1.7309e-06 -9.33954e-07 4.63021e-09
4.06528e-07 -1.2473e-10 -7.53438e-06
-1.84128e-06 3.9314e-07 3.18902e-09
-4.6675e-07 1.67278e-10 4.83957e-06
-2.23928e-06 -3.62644e-06 1.07886e-08
-5.21655e-06 -5.73721e-06 1.11665e-08
-4.61409e-10 -3.54218e-06 1.23777e-05
-3.04042e-06 -1.11215e-05 -1.0573e-07
-4.85471e-06 -9.49644e-06 -7.11602e-08
-3.9441e-06 -3.746e-06 -7.47793e-09
6.04943e-06 2.43245e-09 3.55736e-05
-4.31975e-06 -4.83168e-06 -2.04745e-08
-4.03775e-06 -3.63013e-06 -4.83104e-09
-6.06985e-06 -3.26259e-06 2.12296e-08
-5.83981e-06 -4.11679e-06 9.42591e-09
-5.83072e-06 -5.76067e-06 7.30718e-10
-4.39751e-06 -4.58559e-06 8.57144e-09
-5.23929e-06 -6.23641e-06 -5.15939e-09
-1.59933e-10 -7.4571e-07 2.63723e-06
-1.32938e-07 -3.5963e-11 3.87011e-05
-3.29488e-06 -1.25416e-06 -1.9062e-08
-2.46231e-06 -1.59431e-07 -8.25675e-09
-6.92729e-07 -9.12743e-07 -2.53873e-09
-2.13428e-06 8.28149e-07 -6.02403e-09
-1.81043e-06 9.47126e-07 -5.0461e-09
-3.28984e-07 -4.58028e-07 -3.58808e-10
-2.16543e-06 1.08923e-06 -8.69385e-09
-2.44344e-06 9.21251e-07 -1.12796e-08
-3.47995e-06 1.21166e-06 -2.51942e-08
1.02421e-06 2.69067e-06 1.02627e-08
-2.07564e-06 -1.33788e-06 -8.61995e-09
-1.48228e-06 -4.53803e-07 -3.44436e-09
1.56657e-06 -4.61848e-09 -7.12738e-07
-1.08434e-06 -7.79302e-07 -2.88142e-09
-6.42818e-07 -1.53385e-06 -3.88145e-09
-7.87215e-07 -1.14045e-06 -3.08868e-09
-9.79989e-07 -9.68133e-07 -3.17596e-09
-1.10321e-06 -1.16084e-06 -3.21863e-09
1.27298e-07 7.47551e-07 -4.95051e-10
-1.23576e-06 1.2591e-06 -9.55119e-09
5.99365e-07 1.15787e-06 1.03644e-08
-2.57222e-06 -1.08081e-06 -1.06171e-08
-6.18271e-07 -6.77964e-07 -1.355e-09
-9.87485e-07 -3.58003e-07 -1.35002e-09
-1.19726e-06 2.77927e-07 -1.54827e-09
-9.71309e-07 2.98404e-07 -1.89359e-09
-3.04235e-07 5.06254e-07 -6.79769e-10
-8.82713e-07 1.0215e-06 -2.55152e-09
-2.02673e-08 1.38298e-06 -2.48836e-09
-2.24262e-06 1.30911e-06 -1.27325e-08
-1.89402e-06 2.80778e-06 -4.79293e-08
-3.13217e-07 9.86148e-12 -3.01618e-05
-1.81633e-06 -1.27589e-06 -7.8154e-09
-1.63601e-07 -1.90287e-06 -3.56483e-09
-7.09583e-08 -1.24256e-06 -2.13865e-09
-1.03719e-06 -7.61304e-07 -1.69263e-09
-6.77573e-07 -8.32223e-07 -1.57747e-09
-5.99165e-07 -3.52494e-07 -8.71302e-10
-4.5124e-07 -3.29264e-08 -4.06061e-10
3.38291e-07 -2.92612e-07 -1.69386e-10
6.50756e-08 -4.94377e-08 1.35464e-10
-2.43123e-06 3.6738e-06 -7.13701e-08
-4.68497e-07 8.13834e-12 -7.62728e-06
-1.55093e-06 -1.58031e-06 -6.44827e-09
-5.69124e-07 -9.27587e-07 -1.58456e-09
-2.31611e-07 -1.03561e-06 -1.35349e-09
-8.687e-08 -5.44117e-07 -6.8091e-10
-1.19793e-06 -2.03351e-07 -1.9279e-09
-5.04995e-07 -1.07134e-06 -1.45003e-09
-4.07156e-07 -1.68195e-07 -4.67371e-10
1.31863e-06 -1.06984e-07 -1.81494e-09
2.63317e-07 -4.67972e-08 2.11587e-10
-2.79953e-06 -6.41099e-07 -4.96476e-08
-6.59782e-07 -1.5044e-06 -3.86033e-09
-1.11833e-07 -1.85302e-06 -4.47072e-09
-3.40566e-07 -1.40806e-06 -2.31969e-09
-1.84655e-07 -1.15688e-06 -2.08974e-09
-1.15441e-06 -6.7626e-07 -1.99511e-09
-6.85788e-07 -4.26696e-07 -6.61516e-10
5.18344e-07 -2.90131e-08 -5.5287e-10
1.84833e-06 4.51575e-07 -4.03948e-09
1.0045e-06 7.2741e-07 -7.77316e-10
-2.10153e-06 1.33495e-06 -3.87881e-08
-3.7044e-07 -1.47426e-06 -2.84307e-09
-4.15754e-07 -5.271e-07 -5.60225e-10
6.6542e-07 -9.92412e-07 -1.49446e-09
7.0891e-07 -3.12281e-07 -6.68756e-10
-4.22554e-08 4.82093e-08 -2.08245e-11
3.11227e-07 -1.48257e-07 -1.82847e-11
7.75245e-07 3.5534e-07 -1.03192e-09
1.61688e-06 1.14483e-06 -4.41399e-09
2.21898e-06 1.81061e-06 -7.31614e-09
-2.86321e-06 5.72256e-06 -1.10616e-07
-1.20808e-06 -1.06882e-06 -3.72433e-09
-5.04693e-07 -9.9587e-07 -1.9735e-09
1.51005e-06 -1.06681e-06 -3.88483e-09
1.02338e-06 -6.26439e-07 -2.28625e-09
-2.08833e-08 1.99091e-07 1.10486e-12
2.00631e-07 4.61295e-07 -4.07519e-10
1.82944e-06 7.97236e-07 -4.72809e-09
1.65265e-06 8.26015e-07 -4.12624e-09
1.57361e-06 1.18642e-06 -5.7434e-09
-3.32843e-06 5.03e-06 -9.20423e-08
2.46974e-11 7.858e-09 3.79307e-05
-1.79695e-06 -1.76281e-06 -1.25127e-08
-3.98158e-07 -2.7034e-06 -1.59736e-08
3.5022e-08 7.97899e-06 1.28643e-05
9.56963e-07 -3.11836e-06 -1.76499e-08
1.80272e-06 -2.19779e-06 -1.3867e-08
1.79483e-06 -1.18584e-06 -7.77917e-09
1.38695e-06 -2.35616e-06 -1.119e-08
1.88983e-06 -6.71737e-07 -5.93247e-09
2.36205e-06 -5.51576e-07 -8.54574e-09
2.17195e-06 4.50979e-07 -6.32955e-09
-1.44724e-06 6.66748e-06 -8.29068e-08
2.45143e-06 1.12804e-06 1.63113e-08
4.03662e-06 -5.27985e-08 -1.88799e-08
4.73453e-06 -2.29332e-06 -8.39753e-08
5.07808e-06 -3.50018e-06 -1.03927e-07
-9.85341e-07 -2.55283e-06 -4.6383e-08
6.09595e-06 -3.76167e-06 -1.16358e-07
6.12922e-06 -3.27152e-06 -1.07639e-07
6.97754e-06 -1.7971e-06 -9.70572e-08
-7.21631e-06 3.67913e-09 -4.14638e-05
6.5013e-06 -1.64094e-06 -9.92979e-08
2.67388e-06 3.30206e-06 2.88462e-08
-3.5151e-09 -3.62074e-06 -1.06791e-05
-1.28076e-07 -1.11366e-11 2.68937e-05
4.76838e-07 2.71513e-06 1.55611e-08
4.09674e-07 1.79018e-06 7.79347e-09
-3.45282e-08 2.67715e-06 1.11009e-08
3.77464e-07 1.87181e-06 7.66279e-09
9.59075e-07 1.89999e-06 9.18876e-09
1.27337e-07 3.16063e-06 1.32427e-08
1.37902e-06 1.31897e-06 7.53475e-09
1.57907e-06 7.94198e-07 6.70385e-09
2.42858e-06 6.50263e-07 1.63698e-08
4.61191e-06 -1.48649e-06 2.1474e-07
7.44676e-11 -4.42496e-07 2.72118e-05
5.06046e-07 2.12183e-07 5.58857e-10
1.56097e-06 -2.2199e-07 4.45519e-09
1.35454e-06 -5.91323e-07 3.46067e-09
1.9646e-07 -5.94635e-07 1.29862e-09
8.38439e-07 -2.2599e-07 1.21399e-09
4.68393e-07 -3.45384e-07 6.91218e-10
1.2832e-06 -2.1203e-07 3.21539e-09
3.85934e-07 7.72044e-09 5.70415e-10
1.30458e-06 1.33449e-06 9.01561e-09
2.91461e-06 1.47584e-06 1.02399e-07
-5.50778e-07 1.75483e-06 7.24237e-09
1.37347e-06 5.12116e-07 3.81623e-09
2.69816e-07 1.48086e-06 3.91499e-09
7.78231e-07 6.90696e-07 2.41527e-09
-4.63449e-07 1.09581e-06 1.81097e-09
1.13799e-07 1.64787e-06 3.54651e-09
-1.37397e-08 1.81653e-07 7.60724e-11
1.33883e-06 -6.53841e-07 4.33829e-09
1.60331e-06 5.85974e-08 6.95051e-09
3.88674e-06 -4.13309e-06 1.29096e-07
-1.20566e-11 1.19736e-07 -3.19428e-05
-8.41516e-07 1.35205e-06 5.07514e-09
9.42905e-07 6.91812e-07 2.05973e-09
2.13702e-07 4.48097e-07 6.24267e-10
2.89097e-06 -3.031e-09 -2.66318e-06
8.5217e-07 9.25012e-07 2.37217e-09
-1.84417e-07 1.21584e-06 1.6551e-09
2.71918e-07 -2.46125e-07 2.8164e-10
3.19875e-08 -3.03932e-07 1.45941e-10
1.04729e-06 -3.01783e-07 2.4325e-09
1.11245e-06 4.1853e-07 3.81237e-09
3.2211e-06 3.13932e-07 7.10192e-08
-9.45617e-07 1.30929e-06 4.89928e-09
8.59339e-07 2.20248e-07 1.34611e-09
-1.89701e-08 6.81567e-07 6.85373e-10
1.41194e-06 2.23068e-07 2.26491e-09
-1.0107e-07 1.27062e-07 1.4038e-10
4.33121e-07 2.22166e-07 2.55603e-10
-9.06117e-07 2.14165e-07 1.02885e-09
3.20025e-07 1.04148e-07 4.54253e-10
8.39373e-07 8.50576e-07 2.49672e-09
4.44282e-06 -3.73305e-07 9.9687e-08
1.09489e-10 -5.28308e-07 -3.02142e-05
2.00466e-07 -3.83219e-11 -2.2479e-05
-1.40101e-06 -1.43041e-07 3.36497e-09
8.90532e-07 5.23851e-07 1.77494e-09
2.58575e-07 5.07705e-07 4.66865e-10
5.78287e-07 1.21691e-06 2.2387e-09
-5.51144e-07 5.9143e-07 1.61506e-09
6.19027e-07 6.28216e-08 5.38252e-10
-4.00774e-07 1.24125e-07 4.31379e-10
-1.57869e-07 -1.09532e-06 2.34094e-09
8.85056e-07 -6.01791e-07 3.92923e-09
3.25396e-06 -1.78072e-06 7.70031e-08
6.43622e-09 -2.28542e-06 5.14583e-05
-5.64061e-07 8.35808e-07 2.10761e-09
9.11593e-07 6.18054e-07 1.63229e-09
-1.43435e-07 4.90886e-07 4.65981e-10
-2.60075e-07 3.21274e-07 3.07176e-10
-1.77324e-07 4.38502e-07 2.72697e-10
-2.51578e-07 -2.06893e-07 1.9257e-10
-2.45579e-07 -7.24324e-07 7.41427e-10
5.28389e-06 -1.29511e-08 1.16618e-05
-1.89214e-08 -1.43361e-06 3.9206e-09
8.09947e-07 -1.15946e-06 4.69405e-09
4.1743e-06 -2.21116e-06 1.06709e-07
1.24951e-07 1.4913e-11 -3.51633e-06
4.67639e-08 1.38522e-06 3.93002e-09
6.74292e-07 1.11338e-06 3.07449e-09
-8.93838e-09 9.3427e-07 2.56795e-09
-8.58768e-07 1.68349e-06 6.13837e-09
-2.68167e-07 1.22253e-06 2.92228e-09
-4.4408e-07 1.56402e-06 3.06521e-09
-7.64047e-07 6.08142e-07 2.1955e-09
1.88861e-06 -3.97167e-09 -7.89138e-06
-7.73655e-07 8.48439e-07 2.51352e-09
8.63924e-07 -1.18643e-06 4.99177e-09
5.00975e-06 -4.46835e-06 1.44561e-07
-2.13771e-10 9.58814e-07 -2.53558e-05
-2.10141e-07 4.053e-12 3.57082e-05
3.37229e-07 1.74681e-06 9.57604e-09
-1.10545e-06 1.74554e-06 1.14712e-08
2.2557e-07 1.99443e-06 8.91462e-09
-8.12612e-07 1.74436e-06 8.21878e-09
7.06581e-07 6.25622e-07 2.57372e-09
3.21434e-08 1.47594e-06 3.71895e-09
-3.32559e-07 1.28179e-06 4.63188e-09
-5.6878e-07 1.54307e-06 6.25082e-09
1.09454e-06 -1.2443e-06 5.68756e-09
3.43352e-06 -4.70131e-06 1.06951e-07
7.76012e-10 1.67513e-06 2.51327e-05
-7.7228e-07 3.38573e-10 -3.42602e-05
-1.74528e-06 4.49195e-06 2.08752e-07
-3.67235e-06 3.88594e-06 1.58965e-07
-4.8224e-07 3.84622e-06 9.87373e-08
-3.54902e-06 4.79611e-06 1.40889e-07
1.72981e-05 -2.88741e-08 6.44583e-05
-2.05788e-07 3.96856e-06 8.91308e-08
-3.32504e-06 5.5981e-06 1.43571e-07
-4.379e-06 3.94165e-06 1.19807e-07
-3.90002e-06 3.86537e-06 1.09727e-07
-2.03422e-06 3.43858e-06 8.04441e-08
-7.10983e-07 -2.48937e-07 -9.99507e-09
1.60702e-10 6.1278e-08 1.94397e-05
-6.28585e-07 -2.51655e-11 8.30435e-06
7.13459e-07 -1.10818e-06 -4.86991e-09
4.06679e-07 -4.67281e-07 -1.05269e-09
-3.88686e-07 -7.46619e-07 -1.06712e-09
3.44026e-07 -5.04586e-07 -6.00082e-10
-4.44569e-07 -1.789e-07 -5.46362e-10
-2.13393e-07 -8.86221e-07 -1.08876e-09
4.24548e-08 1.1144e-07 3.5847e-11
-6.17762e-07 6.56511e-08 -1.26116e-09
-5.7128e-07 5.61994e-07 -2.82049e-09
-6.80704e-06 2.81081e-07 -3.99405e-07
-1.25529e-10 6.86616e-07 -3.29819e-05
7.14082e-07 -7.5325e-07 -2.81707e-09
4.9325e-08 -3.17129e-07 -1.90309e-10
-1.04908e-07 3.00425e-08 -3.01396e-11
1.1745e-07 5.62944e-07 -5.35519e-10
-6.89452e-07 8.34667e-07 -2.26674e-09
4.97546e-08 1.23971e-06 -2.77192e-09
-4.53198e-07 9.45193e-07 -2.92892e-09
-1.24452e-06 3.69379e-07 -4.35243e-09
-2.77201e-07 -1.30594e-06 -1.60441e-09
-4.76472e-06 -7.56577e-07 -2.12053e-07
3.82105e-07 -1.67485e-07 -5.08805e-10
1.36878e-07 -7.73627e-07 -1.53445e-09
-1.98954e-07 -3.93029e-07 -4.26945e-10
3.38897e-07 -2.07285e-07 -2.68373e-10
1.50001e-08 -1.35503e-07 -7.60268e-11
-2.28754e-07 -3.68006e-07 -4.38105e-10
1.45338e-07 1.32436e-07 -4.36808e-11
-1.10098e-06 3.10709e-07 -3.51397e-09
-5.68672e-07 2.71849e-07 -1.67214e-09
-3.98872e-06 2.33395e-06 -1.29199e-07
2.02772e-07 1.42314e-08 -1.04702e-10
7.74387e-08 -1.77592e-07 -1.05508e-10
-3.24148e-07 3.03465e-07 -4.72009e-10
-9.04943e-09 3.24881e-07 -9.44546e-11
8.20506e-09 -4.19598e-07 -2.06347e-10
-2.93241e-07 1.57621e-07 -2.53023e-10
-3.32423e-07 3.55168e-07 -4.1007e-10
-9.97126e-07 4.08524e-07 -2.70974e-09
-1.8058e-06 -2.21231e-07 -9.63788e-09
-3.03599e-06 -2.36028e-06 -8.22256e-08
1.75607e-07 8.33608e-08 -1.30135e-10
1.40755e-07 -3.05312e-08 -3.78605e-11
-6.7235e-07 4.64532e-08 -1.02166e-09
-4.81836e-07 -1.34426e-07 -1.84711e-10
4.01144e-07 1.49696e-07 -3.88261e-10
2.71112e-07 1.48873e-07 -2.21686e-10
5.69871e-07 1.1529e-08 -4.25485e-10
-1.03026e-06 1.11728e-07 -2.80302e-09
-9.24352e-07 -1.36746e-07 -3.15723e-09
-3.51297e-06 2.0641e-06 -9.78293e-08
5.54313e-07 -2.13751e-07 -1.00505e-09
8.27874e-08 3.51991e-08 -1.99166e-12
-6.57092e-07 -5.56112e-08 -9.77414e-10
-2.97433e-07 -2.17546e-07 -2.76453e-10
8.65674e-07 3.62667e-07 -7.6022e-10
7.9254e-07 2.97386e-07 -6.75561e-10
-1.08478e-07 1.73209e-07 -4.73899e-11
-7.66363e-07 2.84461e-09 -1.43652e-09
-5.15941e-07 5.28318e-07 -2.22936e-09
-3.94427e-06 1.76038e-06 -1.03823e-07
3.84646e-07 7.4209e-08 -4.43298e-10
1.04998e-07 -8.26269e-07 -1.56657e-09
-7.24045e-07 -1.59186e-07 -1.15734e-09
-1.87299e-07 -5.79684e-07 -9.71898e-10
6.05276e-07 -6.50902e-07 -1.62196e-09
2.03367e-07 -1.91085e-08 -1.20014e-10
-1.66625e-07 -5.75353e-08 -1.80727e-11
-4.89743e-07 7.82134e-08 -8.19459e-10
-9.39933e-07 3.03575e-07 -3.8879e-09
-3.51066e-06 -1.83726e-06 -8.8264e-08
-1.08931e-06 -1.2901e-10 2.71839e-05
8.03485e-07 -4.97544e-07 -2.41907e-09
4.52649e-07 -5.57536e-07 -1.53645e-09
-4.97602e-07 -8.8853e-08 -5.72392e-10
-2.00666e-07 -1.02212e-06 -2.72229e-09
5.68404e-07 -8.93084e-07 -2.54604e-09
2.51415e-07 -1.0304e-06 -2.3141e-09
-4.21563e-07 -7.69113e-07 -1.87374e-09
-3.35728e-07 -5.35575e-07 -1.1242e-09
-1.24289e-06 3.39515e-07 -4.61709e-09
-4.53355e-06 1.58438e-06 -1.18358e-07
1.37796e-06 -1.32251e-06 -1.16398e-08
9.76856e-07 -3.01605e-07 -3.35369e-09
2.45259e-07 -1.10538e-07 -2.00826e-10
-5.35718e-07 -1.59551e-08 -8.12791e-10
-6.69002e-07 5.36243e-07 9.05574e-11
3.58353e-07 8.53706e-07 -6.25748e-10
6.26938e-08 1.01603e-06 -9.56373e-10
-2.86837e-07 9.84108e-07 -8.87508e-10
-1.33912e-06 1.13822e-06 -7.47136e-09
-3.55273e-06 5.65174e-07 -8.59261e-08
-8.05464e-11 5.93014e-07 -2.77169e-05
6.94102e-07 -6.72796e-06 -3.92521e-07
1.12326e-06 -5.04497e-06 -2.26135e-07
-2.03836e-06 -3.37041e-06 -1.03346e-07
1.239e-07 -4.76425e-06 -1.34657e-07
1.32695e-06 -3.88036e-06 -1.01783e-07
-7.13271e-07 -5.45931e-06 -1.37295e-07
5.52499e-08 -3.07367e-06 -7.73812e-08
-2.25319e-06 4.19361e-09 -5.43355e-05
-2.76053e-07 -3.03733e-06 -7.17059e-08
-4.51097e-07 -3.78465e-06 -8.98846e-08
-1.91595e-06 -2.10551e-06 -7.73829e-08
2.43136e-12 3.87098e-07 -8.61571e-06
3.85828e-08 -7.27179e-12 -3.652e-05
-3.14351e-07 -4.83956e-07 2.80157e-10
-2.24048e-07 -4.91889e-07 4.08405e-10
4.00408e-07 -4.99121e-07 5.08486e-10
-2.89123e-07 -4.51783e-07 4.12669e-10
-7.13285e-08 -6.86687e-07 5.5619e-10
4.60142e-08 -6.07344e-07 6.93497e-10
-3.13739e-07 -5.74392e-07 6.58081e-10
-6.38402e-07 -4.5862e-07 7.28781e-10
1.11438e-07 -5.34902e-07 9.57373e-10
4.80945e-06 1.12718e-06 3.10648e-07
-5.751e-11 5.50483e-07 -5.73163e-07
-5.23878e-07 3.38911e-07 1.22454e-09
-6.8636e-07 5.09181e-07 1.58337e-09
-7.20127e-07 5.64798e-07 1.83802e-09
-3.14118e-08 3.66556e-07 6.40642e-10
-3.67798e-07 5.71141e-07 1.10654e-09
1.63856e-07 2.92047e-07 3.63843e-10
-2.3627e-07 4.66682e-07 3.54951e-10
-4.87427e-07 -1.55027e-07 2.71534e-10
1.79329e-07 3.50864e-07 2.48621e-10
4.39031e-06 -5.66766e-07 2.20902e-07
5.59569e-08 -5.23546e-07 3.33362e-10
-7.74976e-07 2.702e-07 1.70359e-09
8.26961e-08 -7.17384e-07 9.77947e-10
-1.1435e-06 -3.22336e-07 1.75335e-09
6.10661e-07 -7.99325e-07 1.48911e-09
1.5561e-07 -8.9356e-07 1.74512e-09
4.64466e-07 -2.99622e-07 9.79769e-10
-7.25395e-07 3.58652e-08 4.93417e-10
6.40213e-07 -1.21388e-07 2.23695e-09
2.68405e-06 1.06937e-06 8.53708e-08
2.11157e-07 -6.39567e-07 7.46348e-10
-3.95744e-07 1.20925e-07 4.85188e-10
-1.52341e-07 -3.62174e-08 9.63971e-13
-6.07274e-07 -4.61698e-07 4.37711e-10
5.03741e-07 -2.56414e-07 8.31495e-10
3.34776e-07 5.50786e-07 1.22791e-09
5.71607e-07 1.69874e-07 9.7547e-10
-3.06726e-07 3.41152e-07 3.56579e-10
5.55778e-07 -7.1579e-10 1.75724e-09
2.93026e-06 8.88614e-07 7.99927e-08
-2.39972e-06 1.35486e-10 -9.49171e-06
2.80808e-07 -3.82198e-07 2.56702e-10
-3.06821e-07 1.93239e-07 3.46244e-10
-1.08573e-07 -8.44601e-08 1.00838e-11
-4.0462e-07 2.01114e-07 4.86401e-10
4.04865e-07 1.98837e-07 6.40062e-10
-3.58703e-08 2.56836e-07 2.54903e-10
8.77856e-07 1.53807e-08 1.86291e-09
7.7515e-08 8.49256e-08 8.47706e-11
4.64805e-07 1.74334e-07 1.29024e-09
2.68763e-06 -1.27038e-07 7.07795e-08
-5.26534e-07 8.80269e-11 3.35247e-05
1.89975e-07 2.98779e-07 1.42825e-10
-4.0954e-07 2.48511e-07 6.72043e-10
-3.87053e-07 4.01223e-08 3.0664e-10
-1.88976e-07 1.32195e-07 2.01119e-10
5.89553e-07 -2.07881e-07 1.10326e-09
-4.62016e-07 1.69535e-07 3.93144e-10
6.25818e-07 1.63772e-08 1.23111e-09
2.56114e-07 7.89255e-07 1.49465e-09
4.87286e-07 7.51919e-07 2.17735e-09
2.86611e-06 3.87607e-07 7.47204e-08
2.54002e-07 -2.94106e-07 -1.70103e-11
-6.73118e-09 -2.95039e-08 7.23199e-13
-1.93071e-07 -1.98632e-07 1.47331e-10
3.76214e-07 -3.80231e-07 3.46614e-10
3.45475e-07 -3.93579e-07 3.15106e-10
3.61964e-07 2.34726e-07 4.66058e-10
1.04328e-07 4.61791e-07 5.05789e-10
-8.72969e-08 9.46029e-07 1.93533e-09
1.03369e-07 4.43083e-07 5.28095e-10
2.68313e-06 2.11483e-06 7.52438e-08
1.16242e-12 -9.78702e-07 -3.0117e-05
2.00132e-07 -2.11708e-07 -2.1919e-11
7.49931e-08 -1.20819e-07 -5.08333e-11
-1.87175e-07 -1.39425e-07 8.07507e-11
5.30039e-07 -1.32876e-07 7.32972e-10
-4.09998e-08 -2.99515e-07 1.13241e-10
6.59739e-08 -2.79157e-07 4.78188e-11
2.88019e-07 -2.4029e-07 1.84359e-10
5.14035e-07 -6.57276e-07 1.50648e-09
3.17554e-07 3.67232e-07 5.8415e-10
2.95514e-06 1.55097e-06 8.17867e-08
-3.74156e-07 2.25494e-07 1.288e-09
7.72063e-07 4.09513e-07 2.5978e-09
-2.28225e-07 3.70094e-08 1.22329e-10
5.53664e-07 -2.26541e-07 6.57998e-10
1.67109e-07 3.08486e-08 -7.62388e-11
-7.71059e-08 -4.07184e-07 -3.19888e-10
-6.88989e-08 -4.98584e-07 7.88083e-11
8.74597e-08 -1.23011e-06 1.97452e-09
-1.27475e-07 5.85529e-07 6.33979e-10
2.72926e-06 1.74782e-06 7.75275e-08
6.91413e-11 8.62713e-07 2.60322e-05
-7.4426e-07 2.67431e-10 2.08947e-06
1.12085e-06 4.75233e-06 3.03912e-07
1.48462e-06 3.86589e-06 1.93983e-07
1.22969e-06 3.34501e-06 1.1096e-07
1.62267e-06 2.82291e-06 8.47235e-08
7.79333e-07 2.8432e-06 7.6891e-08
1.65014e-06 2.01633e-06 5.83035e-08
1.73287e-06 3.46275e-06 9.36813e-08
1.41806e-06 2.48829e-06 6.76318e-08
1.53332e-06 3.16076e-06 8.49087e-08
2.93509e-06 2.95839e-06 1.60035e-07
-2.59026e-07 -9.63203e-07 1.6249e-09
-4.57601e-07 -3.16518e-07 5.35629e-10
-1.72605e-07 -4.79809e-07 4.70944e-10
-5.26231e-07 3.01059e-08 5.70749e-10
-5.38599e-07 -1.91572e-07 5.12968e-10
-2.57871e-07 -2.54934e-07 1.46886e-10
-5.54761e-07 1.00664e-07 3.45681e-10
-1.15866e-06 -2.6311e-07 2.91149e-09
-4.83214e-07 2.9237e-07 -7.15468e-10
2.13486e-06 1.91402e-06 1.5529e-07
-1.12893e-07 -7.62829e-07 1.04897e-09
-3.46474e-07 -1.24436e-07 2.39315e-10
-4.64914e-07 -5.95324e-09 3.75543e-10
-2.12765e-07 -2.12459e-07 2.16522e-11
-4.75067e-07 2.17759e-07 5.89211e-10
-1.0193e-07 2.83233e-07 3.49948e-10
-5.15977e-07 2.83224e-07 4.75847e-10
-6.93622e-07 2.52683e-07 9.95507e-10
-2.59479e-07 1.09733e-08 -1.4226e-10
2.83168e-06 2.44573e-07 1.48859e-07
-4.72638e-07 -4.77738e-07 7.80237e-10
-2.70412e-08 -5.08922e-07 4.87943e-10
-2.15973e-07 -2.91394e-07 2.24099e-10
-2.77742e-07 -1.54282e-07 1.09348e-10
-2.2233e-07 -2.23496e-07 3.20787e-10
-1.80554e-07 1.44155e-07 1.5342e-10
-2.35649e-08 3.87139e-07 4.62122e-10
-6.85375e-07 3.84219e-07 9.04556e-10
-6.85742e-07 -2.30628e-08 -5.59995e-12
1.37776e-06 1.78269e-06 5.22421e-08
-2.75852e-07 -4.90593e-07 6.46756e-10
1.72438e-08 -4.78431e-07 3.99286e-10
-2.17308e-07 -1.90499e-07 2.13205e-10
-6.05717e-07 -2.25451e-07 3.89605e-10
-1.78978e-07 -4.88151e-07 2.70161e-10
-2.06013e-07 -1.51695e-08 6.0606e-11
-3.0925e-07 1.36658e-07 1.88426e-11
-2.36445e-07 3.36294e-08 3.44281e-11
-7.15788e-07 -5.41412e-08 2.57608e-10
1.63154e-06 7.36838e-07 4.40431e-08
1.10919e-10 8.53128e-07 -2.79281e-05
-2.39994e-07 -3.93292e-07 3.0037e-10
-3.12173e-08 -1.3417e-07 1.79461e-11
-4.40654e-07 -1.52956e-07 6.01192e-10
-9.26726e-08 -1.15905e-07 5.16158e-12
-1.23754e-07 -1.06719e-07 1.02634e-11
8.99397e-08 -1.31216e-07 1.00261e-10
2.85642e-07 -1.11417e-07 2.93226e-10
-4.24185e-08 -1.09911e-07 4.56243e-11
-3.57586e-07 -4.01925e-08 -1.32567e-10
1.37091e-06 8.81276e-07 3.70257e-08
-8.64953e-07 1.51769e-10 -2.68989e-05
1.56736e-07 -8.6626e-08 1.3019e-10
-7.78077e-08 -3.59281e-07 4.71456e-11
-5.40711e-07 -3.77086e-07 9.16976e-10
-2.9387e-07 -5.1976e-07 4.51501e-10
2.96684e-07 2.84275e-08 1.32033e-10
1.67606e-07 -1.50944e-08 8.29083e-11
3.83817e-07 1.53448e-07 5.45328e-10
1.87179e-07 1.88661e-07 1.402e-10
2.17952e-07 7.44172e-07 1.53689e-09
1.22309e-06 1.22668e-06 3.51134e-08
1.69287e-07 -5.41786e-07 4.1032e-10
-3.21641e-09 -3.86834e-07 3.42416e-10
-1.98819e-07 -2.73953e-07 3.67898e-10
8.7285e-08 -6.02543e-07 6.80752e-10
3.2772e-07 -5.76554e-07 6.69375e-10
3.3668e-07 -1.75684e-07 2.81504e-10
1.67761e-07 1.79976e-07 1.65267e-10
-3.21351e-08 5.58967e-07 7.54216e-10
-6.39116e-08 7.67223e-07 9.79597e-10
1.27791e-06 1.95618e-06 3.97292e-08
5.8001e-11 5.31907e-07 3.1827e-05
-6.24307e-07 -1.01959e-10 -3.22726e-05
1.28381e-07 -3.49135e-07 -1.58925e-11
1.1222e-07 -3.56903e-07 1.17933e-10
1.34722e-07 -2.93752e-07 -6.0753e-11
-1.588e-07 -8.61696e-07 9.98563e-10
2.07778e-07 -4.49347e-07 5.05755e-10
4.46917e-08 -6.63511e-07 6.79735e-10
3.08445e-07 -3.6817e-07 3.78915e-10
3.52996e-07 -4.33238e-07 7.98625e-10
-1.24375e-07 1.01683e-06 2.09574e-09
1.12201e-06 2.42629e-06 4.43602e-08
1.32325e-06 1.15099e-11 5.41569e-06
3.25963e-07 -5.64135e-07 -7.84887e-10
5.57178e-07 -2.74242e-07 7.5458e-12
2.39709e-07 -3.28995e-07 -1.80402e-10
-1.7346e-07 -5.96307e-07 -1.24278e-10
2.78983e-07 9.8534e-08 2.56745e-10
4.85162e-07 -3.74967e-08 5.80108e-10
5.0148e-07 2.89174e-07 1.20263e-09
4.86274e-07 -4.3589e-09 6.64659e-10
-1.56857e-08 1.11394e-06 3.47456e-09
1.57232e-06 2.34162e-06 5.75711e-08
2.76927e-11 7.36848e-07 9.06639e-06
1.98952e-06 2.17896e-06 1.56785e-07
1.71016e-06 2.49808e-06 1.37241e-07
1.05635e-06 2.16319e-06 7.43882e-08
1.70742e-06 6.7377e-07 2.62175e-08
1.34836e-06 1.26974e-06 3.84251e-08
1.65944e-06 7.49152e-07 2.65205e-08
1.81406e-06 1.32521e-06 4.06584e-08
1.66565e-06 1.32929e-06 4.15799e-08
2.81201e-06 1.80586e-06 6.66098e-08
2.4304e-06 2.42521e-06 1.55227e-07
9.96814e-10 1.5083e-06 7.77847e-06
4.53291e-07 1.02353e-06 -3.15704e-09
5.31265e-07 4.2593e-07 -1.15479e-09
3.7035e-07 5.30508e-07 -1.11446e-09
5.94468e-07 7.49259e-08 -9.18911e-10
6.05965e-07 2.45788e-07 -8.76021e-10
2.68246e-07 3.29159e-07 -3.80644e-10
7.93613e-07 -1.0165e-07 -1.49441e-09
6.8608e-07 -1.49628e-07 -1.06206e-09
9.58749e-07 -3.2098e-07 -2.72336e-10
-1.91949e-07 -1.42322e-06 -2.66256e-08
2.06181e-07 7.5269e-07 -1.54616e-09
3.50135e-07 3.57024e-07 -7.74768e-10
3.65201e-07 2.5464e-07 -5.10528e-10
2.83267e-07 5.09326e-07 -7.73206e-10
4.15487e-07 1.82228e-07 -4.51319e-10
3.8381e-07 1.46992e-08 -3.43616e-10
6.5288e-07 1.77111e-07 -8.36417e-10
1.9151e-07 -3.80137e-07 -2.45178e-10
3.25013e-07 -1.13267e-07 -1.28237e-11
-1.16947e-06 -9.93705e-07 -6.67286e-08
3.44001e-07 6.18779e-07 -1.30246e-09
5.67754e-08 5.91922e-07 -9.58655e-10
2.11479e-07 1.23584e-07 -1.28318e-10
-8.24544e-08 2.42227e-08 -4.09727e-11
4.09431e-07 -1.46343e-07 -6.45189e-10
2.2288e-07 -3.16505e-07 -4.70851e-10
3.7904e-07 -3.28554e-07 -7.12952e-10
3.53732e-07 -5.13175e-07 -7.97122e-10
1.00158e-06 -1.09544e-07 -1.72638e-09
-4.1069e-07 -1.49004e-06 -2.17254e-08
2.62972e-07 5.16384e-07 -9.24164e-10
1.23542e-07 4.95994e-07 -6.25989e-10
9.5362e-08 4.56242e-07 -6.44321e-10
3.39579e-07 2.89426e-07 -4.21671e-10
2.79181e-07 3.74265e-07 -4.53796e-10
2.64983e-07 1.80597e-07 -2.59806e-10
5.68563e-07 -1.92418e-07 -4.67076e-10
5.79637e-08 1.58915e-07 -5.99867e-11
5.90454e-07 4.03106e-08 -2.35682e-10
-1.78781e-07 -1.17949e-06 -8.6249e-09
1.46494e-07 5.32135e-07 -7.18554e-10
1.29643e-07 3.48452e-07 -4.00766e-10
2.1929e-08 3.99885e-07 -3.15314e-10
1.68157e-07 1.51744e-07 -1.061e-10
3.779e-07 2.25055e-07 -5.31631e-10
7.76678e-08 2.43417e-07 -1.66687e-10
1.68033e-07 1.53918e-08 -7.39582e-11
-1.19945e-07 5.62133e-08 -1.01001e-10
3.04475e-07 2.21427e-07 2.33049e-11
-8.06318e-08 -6.79956e-07 -3.25774e-09
5.25594e-12 1.85547e-07 -3.35999e-05
-1.80597e-07 1.64916e-11 1.11461e-05
-1.04825e-07 4.62923e-07 -8.41513e-10
7.81703e-08 6.94871e-07 -1.18157e-09
4.85353e-08 5.03631e-07 -5.33745e-10
1.12582e-07 7.04132e-07 -1.30481e-09
2.37921e-07 1.91158e-07 -3.81769e-10
-3.54611e-08 1.33655e-07 -1.77466e-10
6.92298e-08 -3.00446e-07 2.43326e-11
-3.33737e-07 -1.75162e-07 -4.33336e-10
5.82269e-08 -3.65667e-07 -2.09438e-10
1.85926e-08 -9.35488e-07 -3.38962e-09
-1.79667e-10 -1.86829e-06 1.60451e-05
-9.68609e-08 4.10433e-07 -2.83184e-10
3.32829e-07 2.53423e-07 -3.92399e-10
-1.48232e-07 2.54502e-07 -1.12326e-10
-5.1616e-08 2.26761e-07 -4.37003e-11
-2.78757e-08 1.4817e-07 -4.9893e-12
5.08941e-08 5.78041e-08 -2.51635e-11
-2.56847e-07 -7.0496e-08 -2.72782e-10
-3.86675e-07 -2.06086e-07 -6.3135e-10
1.776e-07 -7.50845e-07 -9.09101e-10
1.60136e-07 -1.94599e-06 -8.93964e-09
7.97416e-07 1.08879e-10 2.91774e-05
-2.11079e-08 4.94283e-07 -1.93132e-10
2.54102e-07 5.04076e-07 -8.03546e-10
-3.81304e-07 5.52287e-07 -9.21996e-10
-1.22849e-08 6.57339e-07 -5.82197e-10
-1.81317e-07 9.73682e-08 -1.4542e-10
-9.58719e-08 5.43553e-08 -3.41666e-11
-5.43402e-07 3.25537e-08 -7.9337e-10
-4.54013e-07 -1.34303e-07 -8.56754e-10
5.79453e-08 -9.45669e-07 -2.60769e-09
3.2987e-07 -2.27368e-06 -1.13784e-08
-2.94981e-08 -1.56207e-11 3.64301e-05
-3.84111e-07 7.27123e-07 2.00847e-10
-1.35637e-07 8.2502e-07 7.43104e-11
-2.32526e-07 9.00239e-07 -1.39715e-09
-9.26993e-08 7.44481e-07 -5.4074e-10
-3.65814e-07 1.89324e-07 -3.72158e-10
-4.13499e-07 3.15433e-07 -4.4492e-10
-6.25602e-07 -2.50877e-08 -1.33391e-09
-6.70783e-07 -1.93771e-07 -2.17095e-09
-1.50065e-07 -9.62525e-07 -3.64679e-09
-3.47084e-07 -2.2451e-06 -2.95891e-08
4.20372e-11 -7.32121e-08 7.72675e-06
-1.39864e-06 -3.06491e-07 -3.17664e-08
-1.09013e-06 -1.29244e-06 -7.30041e-08
-1.44698e-06 -5.83161e-07 -2.5683e-08
-1.39453e-06 6.56757e-07 5.45198e-09
-7.99102e-07 -2.27274e-08 -3.65414e-09
-1.78309e-06 4.5519e-07 -2.7452e-09
-1.9256e-06 2.67399e-07 -8.32475e-09
-1.77496e-06 1.24339e-07 -1.06104e-08
-2.74135e-06 -5.12162e-07 -3.97803e-08
-1.76845e-06 -1.76121e-06 -1.29506e-07
-3.80667e-07 -8.77803e-07 3.44594e-09
-3.82249e-07 -4.21259e-07 1.27377e-09
-2.42399e-07 -4.61742e-07 8.66729e-10
-4.56174e-07 -1.84596e-07 7.77513e-10
-4.96055e-07 -2.51777e-07 8.57708e-10
-1.21649e-07 -2.01487e-07 1.93693e-10
-5.96688e-07 8.86943e-08 1.1532e-09
-4.7514e-07 2.51972e-07 9.9682e-10
-8.62812e-07 1.6721e-07 6.20927e-10
-9.12409e-07 8.7036e-07 -4.96457e-08
-2.84341e-07 -4.5972e-07 1.03515e-09
-3.34413e-07 -2.00625e-07 6.17645e-10
-3.53369e-07 -1.22315e-07 4.64905e-10
-1.71345e-07 -2.19082e-07 3.46344e-10
-3.79644e-07 -1.17895e-07 4.69703e-10
-2.68474e-07 6.50753e-08 2.02557e-10
-4.93372e-07 1.34944e-08 5.72874e-10
-2.02769e-07 3.47117e-07 3.70212e-10
-3.8869e-07 3.22852e-08 -3.31803e-11
1.12307e-07 7.74682e-07 1.09554e-08
-1.89783e-07 -5.20634e-07 1.22516e-09
-2.40013e-07 -3.85994e-07 6.97795e-10
-1.14371e-07 -2.89697e-07 3.1016e-10
-8.74538e-08 -9.02528e-09 9.18266e-11