<?xml version="1.0"?>
<VTKFile type="UnstructuredGrid" version="0.1" byte_order="LittleEndian" compressor="vtkZLibDataCompressor">
 <UnstructuredGrid GhostLevel="0">
  <Piece NumberOfPoints="1903" NumberOfCells="1903">
   <PointData>
    <DataArray type="Float64" Name="Elongation" NumberOfComponents="3"/>
-6.82413e-07 -1.92943e-06 1.27234e-06
1.26262e-06 -1.23575e-06 -7.22076e-07
-6.82497e-06 4.16703e-06 -1.04958e-06
-9.10049e-05 0.00014103 -8.92412e-05
9.50685e-06 6.2104e-05 5.42089e-05
-5.99079e-06 -9.6178e-05 5.71837e-05
-7.91897e-06 8.30719e-05 4.88414e-05
3.44509e-05 0.000179103 -0.000231431
6.32286e-05 3.56756e-05 3.49203e-05
-7.08713e-06 6.29247e-05 5.98981e-05
6.91498e-05 6.87811e-05 -3.83182e-05
8.81869e-05 7.48652e-05 0.000125506
6.60095e-06 9.67599e-06 -1.37218e-05
-2.51003e-06 9.27242e-07 -1.14357e-06
4.393e-06 -7.32871e-07 -2.84773e-06
4.36724e-06 -2.67777e-06 1.233e-05
-2.17657e-05 -7.16249e-06 4.47265e-05
-5.80584e-06 2.39982e-05 -2.37173e-05
-1.93443e-05 1.40508e-05 4.07038e-05
-1.35148e-05 -3.71649e-07 2.69939e-05
4.116e-05 3.09677e-05 1.46509e-05
1.35266e-05 -1.34912e-05 -1.11748e-05
5.94493e-05 -1.36289e-06 1.91439e-05
-3.00189e-05 -1.56418e-05 2.33465e-05
-0.000137881 2.95346e-05 7.40662e-05
-1.96598e-05 5.41417e-05 6.1285e-05
-1.94479e-05 -5.02075e-05 -6.07381e-06
-3.42233e-05 1.26899e-05 1.40102e-05
-1.79481e-05 3.27291e-05 1.87948e-05
-1.36765e-05 -1.82046e-06 3.81397e-06
2.56519e-06 2.70276e-05 3.49916e-05
5.13639e-06 2.78166e-06 1.91903e-05
-3.62525e-06 5.19524e-05 5.8745e-05
-0.000103444 1.72845e-05 -0.000138451
-1.6989e-05 2.82698e-05 5.90234e-05
3.27663e-05 9.93848e-06 -2.18641e-05
1.82759e-05 -9.73008e-06 2.47125e-05
-1.37728e-06 -5.28991e-07 -1.76742e-06
-0.000705645 -0.000126843 0.000622981
-8.16711e-06 1.60954e-05 1.84387e-05
-9.76493e-06 2.18354e-05 7.54312e-06
-1.10727e-05 1.54031e-05 -6.7429e-06
7.94764e-06 4.29418e-05 2.81437e-05
-5.89871e-05 4.17218e-05 -1.52663e-05
6.29143e-05 -5.50668e-05 9.95673e-06
-0.000199992 0.000209117 0.000361844
0.00014342 6.02907e-05 0.000196188
0.000114848 -4.64567e-06 0.000143452
-0.000161669 0.000208361 5.84451e-05
-0.000105397 -5.45572e-05 0.000197755
-3.49048e-05 3.02766e-05 7.80659e-05
2.39301e-05 2.47535e-05 6.10003e-05
0.000238169 -1.4899e-06 -0.000319473
4.02957e-05 5.38628e-05 -6.05004e-05
-1.0165e-06 5.23708e-06 -3.97663e-06
-2.85038e-05 4.27075e-06 -3.13842e-05
0.000174204 4.76731e-05 0.000209317
6.5973e-05 0.000283205 -0.000252463
0.00025846 0.000280872 0.00041225
-6.42448e-06 4.77742e-06 -7.78255e-06
1.61498e-05 1.13354e-05 1.96669e-05
-5.75747e-06 1.53756e-05 2.23474e-05
0.000213727 0.00010184 0.000329651
4.09306e-05 1.08023e-05 2.69731e-05
2.16657e-05 -2.11672e-05 -7.16558e-06
-4.74372e-05 -1.69947e-05 -1.38714e-05
-1.81527e-05 -3.44501e-06 -1.08178e-05
-3.16883e-05 1.57476e-05 1.77113e-05
4.22271e-05 -2.70594e-06 -2.53568e-05
7.03482e-06 0.000144689 -0.000150064
-0.000316981 2.94592e-05 0.000266384
-0.000439815 -0.00028763 0.000545065
-5.5969e-05 -1.66714e-05 -3.03328e-05
-4.84906e-05 -3.90476e-05 -6.78892e-05
-6.11453e-06 1.30829e-06 4.07611e-06
3.20803e-06 4.74489e-06 5.6308e-06
-2.94948e-05 -5.39042e-05 2.09919e-05
0.000167301 8.34785e-05 0.000183598
-2.96906e-05 3.00226e-05 2.3514e-05
-3.91819e-05 -8.71192e-05 5.38436e-05
1.40898e-06 1.61551e-05 1.06627e-05
0.000340566 -0.000219089 -0.000176196
0.000147467 1.90617e-05 8.66812e-05
2.56482e-06 -7.04199e-06 1.31941e-06
1.09904e-06 -8.72812e-07 -7.42704e-06
-2.58319e-05 -3.99415e-05 0.000122423
8.35648e-05 5.80615e-05 0.000169352
9.93444e-06 0.000270352 -0.000223423
4.04217e-06 2.94406e-05 2.54977e-05
9.01314e-05 0.000229194 -0.000239343
-3.08037e-05 -0.000100002 -5.46391e-05
-8.62156e-05 -6.43237e-05 -1.53185e-05
7.05403e-05 -3.7771e-05 -3.38727e-05
-4.06746e-05 0.000151567 0.000124905
7.08974e-06 2.37401e-06 -1.1387e-06
-4.37955e-05 -7.12648e-05 5.39457e-05
0.000212623 -0.000127483 0.000183038
8.10203e-06 1.88133e-05 7.04689e-06
1.77808e-05 1.31344e-05 2.36022e-05
-1.21551e-05 1.52464e-05 2.59921e-05
5.98283e-06 2.07819e-06 8.34884e-06
-8.05466e-05 9.74902e-06 -8.61629e-05
-0.000104346 0.000118482 0.000533811
0.000133591 0.000138096 -0.000180231
0.000117199 -1.7548e-06 3.62775e-05
-2.7918e-06 8.57883e-06 1.18273e-05
-2.02103e-06 5.25972e-06 -8.22031e-06
0.000179882 0.000211254 -0.000112774
0.000142855 0.00027752 0.000317991
-3.33592e-05 -0.000119534 -0.000104814
0.000209007 -2.72577e-05 0.000694788
-2.77186e-05 7.91957e-06 7.69581e-06
-5.81966e-06 -2.49517e-06 3.15663e-07
0.000157941 -5.18426e-05 0.000248793
0.000167928 0.000199677 0.000417739
-6.66446e-06 7.2848e-06 0.000251975
9.73736e-06 -1.6685e-05 4.18061e-05
9.73163e-07 1.24583e-05 8.38239e-06
2.97209e-05 4.03055e-06 3.21775e-05
1.34141e-05 7.03364e-09 2.78462e-05
1.49015e-05 2.06619e-05 1.6499e-05
-0.000117897 -0.000150321 0.000174085
5.08648e-05 9.4587e-05 0.000154557
5.92687e-06 5.43068e-07 -4.67003e-06
1.65899e-05 -1.3628e-05 2.51088e-05
0.000105892 -0.000143201 0.000237236
8.66991e-05 -0.000238305 -0.000264002
1.1191e-05 1.50269e-05 1.95467e-05
-9.21114e-05 -7.37664e-05 2.60022e-05
2.69801e-05 3.71033e-05 3.09028e-05
5.50023e-06 -1.38611e-05 -3.6029e-06
2.72258e-06 1.16113e-06 5.52806e-06
-2.73698e-06 -1.07058e-05 1.89271e-05
2.77706e-05 1.79479e-05 1.94156e-05
-8.0329e-06 2.84477e-05 4.89008e-05
4.31281e-06 1.32381e-06 4.70803e-06
1.21746e-05 -7.69218e-07 -8.6835e-06
6.41366e-06 -6.416e-05 0.000243392
4.78741e-06 9.89398e-05 0.000310801
-6.67953e-05 -8.36263e-05 0.00011844
2.9474e-05 7.76287e-05 9.22883e-05
4.41545e-07 -0.000121289 0.000172127
-5.65533e-05 4.63429e-05 -0.00022225
7.14016e-05 -4.59772e-05 0.000191705
2.39635e-05 -2.04635e-05 0.000146794
9.25981e-05 3.03938e-05 0.000214433
-1.95105e-05 1.65208e-05 1.7342e-05
2.81298e-06 8.31393e-07 1.61484e-06
2.44639e-05 2.03178e-06 8.77593e-06
2.62052e-06 -2.89475e-06 1.06694e-06
2.1245e-05 5.04812e-05 5.13777e-05
2.12214e-05 -1.00108e-05 1.98342e-06
-2.87628e-05 2.88509e-05 3.58452e-05
-2.8972e-05 -4.5616e-06 2.97199e-05
1.64154e-05 2.06478e-06 3.34697e-06
-2.42278e-05 0.000108533 -0.00012157
0.000208004 0.000146886 0.000108103
0.000254933 0.000106198 7.74403e-05
3.01813e-06 -1.60227e-05 -3.25128e-05
4.48176e-06 7.40499e-05 2.70273e-05
7.90623e-06 9.005e-06 -3.13902e-05
4.36828e-07 -2.35133e-06 1.03758e-05
-2.78146e-05 -2.36638e-05 1.43309e-05
-7.70254e-06 7.96058e-06 2.42695e-05
-3.83155e-05 -4.14527e-06 -6.07675e-05
-3.25202e-05 -1.30106e-05 1.32472e-05
7.76813e-06 -1.13184e-05 -3.49583e-05
-5.69215e-06 3.76345e-05 -4.60957e-05
4.86031e-06 -8.30155e-05 9.69709e-06
4.0553e-06 -1.44223e-05 5.39648e-06
8.22428e-06 1.16716e-05 -1.6627e-06
-1.08075e-06 8.23595e-06 9.72342e-07
0.000106803 -8.79373e-05 -9.89303e-06
3.24058e-05 -3.28513e-06 -6.21558e-05
3.43492e-05 6.93693e-05 0.000167077
1.03695e-05 -1.19805e-05 -1.31511e-06
5.09629e-05 3.0619e-05 8.3534e-07
0.000140369 0.000171018 -5.81087e-06
5.79361e-06 -5.12749e-05 -6.39547e-05
-9.18774e-05 -4.53487e-05 2.53733e-05
0.000665935 -3.38469e-05 2.45627e-05
2.27098e-06 7.74185e-06 2.12835e-06
-6.27862e-05 2.02633e-05 1.15246e-05
1.35299e-05 -8.97378e-05 -2.24775e-05
5.30049e-06 -2.0909e-06 -5.39178e-06
1.89626e-05 -1.99607e-05 7.18952e-06
3.72924e-06 2.61095e-05 -1.5441e-05
-4.52571e-06 5.41332e-06 1.53655e-05
9.55955e-06 -2.66626e-05 8.92388e-05
3.51261e-05 1.47342e-05 -5.12979e-05
-4.35924e-05 5.30594e-05 8.47267e-05
8.16628e-05 0.000170942 -0.000189533
8.50413e-05 -0.000147995 -9.07409e-05
-1.08338e-05 1.02799e-05 2.15251e-05
-3.112e-07 3.88038e-05 -3.39426e-05
-4.50404e-05 -8.92808e-06 -6.51868e-05
5.65552e-06 -2.29334e-06 -3.14231e-06
-5.95918e-05 2.05484e-05 7.97201e-05
-2.78366e-05 -0.000159388 0.000123798
6.81173e-05 -4.15973e-06 7.06648e-05
-0.000198152 -0.000147774 0.000359659
-0.000234749 -0.000199786 -0.000322867
1.29739e-06 -1.20101e-05 -5.66972e-05
2.86697e-05 0.000227563 -0.000350386
0.000302975 -0.000163913 0.000119667
-0.000132121 2.56043e-05 -2.02733e-05
2.67624e-05 3.09207e-05 -5.00294e-05
2.80345e-05 2.39239e-06 4.67166e-05
6.4223e-05 -5.79647e-05 5.76095e-05
-0.000185958 -9.35735e-05 5.31764e-05
8.11387e-05 5.2371e-05 0.000143926
2.60017e-05 7.03363e-06 -2.20305e-05
-3.13164e-05 -5.00151e-05 -2.32184e-05
2.11649e-05 0.000279768 -0.000196775
-6.24542e-05 0.000149169 -4.43221e-05
-0.000215798 7.0266e-05 -0.00012735
-7.31687e-06 3.35705e-05 4.44847e-05
6.77162e-05 -3.87034e-06 9.42014e-05
-3.89221e-06 9.98731e-06 -5.24975e-06
6.36579e-06 1.85634e-05 1.86535e-05
7.97697e-07 5.99476e-05 6.20786e-06
-4.89743e-06 4.7496e-06 -7.34854e-06
-0.000138673 7.07052e-05 1.07976e-05
-2.97801e-05 4.85299e-05 -1.68361e-05
-6.41122e-05 -9.61959e-05 -5.73028e-05
-1.90401e-05 5.20403e-05 -3.16779e-05
3.15762e-05 0.000163802 -0.000220656
0.000214824 -3.89156e-05 -6.67454e-05
2.72688e-06 3.6396e-05 -2.13124e-05
-0.000112117 5.42382e-05 0.000103949
-0.000164054 0.000249825 0.000184795
-1.90139e-05 -9.80426e-06 1.07696e-05
-3.73966e-05 -2.15609e-06 -2.1963e-05
2.8827e-05 1.70492e-05 -4.72394e-05
-7.95332e-07 -3.88671e-05 3.83067e-05
-1.53154e-05 8.57157e-06 -2.40171e-05
-1.20216e-05 0.000220324 5.82481e-05
-0.000415896 -0.000122432 0.000448992
6.18262e-05 0.000230008 0.000153825
9.78701e-06 1.57683e-05 -1.43658e-05
3.78738e-06 -1.73374e-05 -1.3172e-05
-2.29652e-05 1.96641e-05 2.12098e-05
-6.72415e-07 -0.00022083 0.000919139
-2.92256e-05 -0.000404558 0.000167441
8.61715e-05 -2.067e-05 -9.3209e-05
1.8349e-05 6.98418e-05 0.000112279
-4.81856e-06 9.6305e-06 -9.97596e-07
-3.94951e-05 -1.07722e-05 1.60085e-05
0.000268446 0.000160865 -0.000456798
-6.77722e-05 1.07393e-05 -0.000172483
-2.5877e-07 9.20316e-06 -1.96996e-05
1.60828e-05 -0.000156988 -0.000105393
0.000199435 -2.51181e-05 9.34712e-05
-8.53857e-05 0.000131153 6.51252e-05
-1.15585e-05 4.01207e-07 6.46201e-06
5.20085e-06 1.32116e-06 3.14519e-06
-3.11679e-06 1.11614e-05 1.51547e-05
-1.54028e-05 2.22044e-06 -8.25741e-06
-1.21503e-05 -1.0443e-05 1.27741e-05
1.417e-05 3.98618e-06 1.08441e-05
1.26659e-06 5.40948e-06 1.0712e-05
2.12425e-06 5.3317e-06 -5.26263e-06
7.92675e-06 -1.86924e-05 2.34883e-05
-8.79178e-05 1.99326e-05 -3.82566e-05
-5.90122e-06 -1.0356e-05 9.7064e-06
3.38515e-06 -1.22003e-05 -3.55619e-06
1.81956e-05 4.04013e-05 2.8061e-05
-1.72274e-07 -6.12149e-07 -2.82164e-06
-5.99367e-07 -1.29461e-07 -3.45875e-05
-5.95276e-06 5.47632e-07 1.38348e-05
3.111e-05 6.92091e-06 -0.000104633
3.71427e-07 1.63512e-05 6.42796e-05
4.91096e-06 -6.04843e-06 2.22896e-05
7.33321e-07 -7.72125e-06 -3.53488e-06
1.48935e-05 -6.45672e-05 -7.79988e-05
-1.51361e-07 -1.15501e-05 1.03177e-05
-7.66342e-07 -2.42859e-06 -2.31414e-06
-2.59614e-05 -5.93206e-05 3.25325e-05
8.18132e-07 6.57192e-06 0.000197192
3.90974e-07 1.92283e-07 9.42791e-08
1.44228e-05 -2.60031e-06 -8.1556e-06
8.17921e-06 -1.19035e-05 3.33437e-06
-1.04142e-06 -4.29695e-06 2.89954e-06
-1.87943e-05 1.53855e-05 -2.69778e-05
7.72837e-05 4.46423e-05 9.48161e-05
-1.14781e-05 5.74077e-05 -1.63412e-05
3.70679e-05 -5.33443e-05 2.73995e-05
2.93312e-05 2.07763e-05 1.16446e-05
9.04596e-07 4.29486e-06 -5.39655e-06
-5.31673e-07 2.98452e-05 -2.84083e-06
-4.01552e-05 9.00749e-05 5.59484e-05
-2.13852e-05 2.9719e-05 -2.10623e-05
-2.03611e-06 7.00096e-06 9.06659e-06
3.42603e-05 3.21758e-06 1.14198e-05
-5.78833e-05 5.85464e-06 -5.60092e-05
5.55423e-05 9.17807e-06 9.40237e-05
1.98503e-06 -3.82946e-06 -5.31817e-06
-8.16985e-06 9.41458e-07 7.74165e-06
9.18896e-06 1.60206e-05 2.12357e-07
6.44027e-06 7.21585e-05 6.30945e-05
8.40333e-05 0.000110524 0.00013724
-1.33079e-05 -3.47735e-05 -1.11682e-05
4.5985e-05 0.000106889 -3.48206e-05
-3.88083e-05 -1.27724e-05 4.51909e-05
-0.00017861 1.75843e-05 0.00023312
-1.31619e-05 -6.61268e-06 -4.77675e-06
6.35775e-05 -6.89391e-06 -2.80198e-05
-4.2427e-05 -1.70207e-05 -1.58516e-05
5.56769e-06 4.24687e-05 -8.21955e-06
-1.49749e-05 -7.22836e-05 1.24745e-05
-2.26679e-06 2.33635e-06 1.83107e-06
5.73195e-05 1.84385e-05 -5.73271e-05
2.14683e-06 9.77778e-06 1.37286e-05
2.95449e-06 -7.50494e-05 3.74001e-05
1.58354e-05 -1.70327e-05 5.14962e-06
6.21167e-07 2.8116e-07 -6.30521e-06
4.00104e-05 -2.43653e-05 -1.00212e-05
-1.33791e-05 -3.58463e-06 1.82606e-05
-5.57583e-05 5.2417e-05 -1.39507e-05
4.69201e-05 -2.17086e-06 -1.41629e-05
2.76205e-06 3.73003e-05 -2.67705e-05
-9.31557e-06 -2.01662e-06 -1.62953e-05
6.13551e-05 -0.000155824 -0.000210924
-7.43501e-05 8.47043e-05 -0.00020683
-5.18093e-05 1.25973e-05 -8.2256e-06
-0.000142332 9.3682e-05 -0.000104297
1.62928e-05 -1.21541e-06 -7.61157e-06
-0.000126369 2.66467e-05 5.75322e-05
3.70267e-05 2.72603e-05 -5.06438e-05
4.01452e-05 -4.78027e-05 8.21329e-05
2.37957e-06 -1.56696e-05 1.27218e-05
-6.32459e-06 3.59938e-05 2.96657e-05
8.53483e-06 8.06908e-06 -2.10318e-05
1.80927e-05 5.35006e-05 3.81437e-06
0.000309788 -4.81316e-05 -2.40469e-05
-0.000195411 0.000293484 -0.000369291
-4.94194e-05 -6.57915e-06 3.40395e-05
-1.9042e-05 8.41554e-05 7.4277e-05
0.000162987 -0.000123065 -0.000231431
-8.61282e-05 0.000123337 -0.000192077
-0.000117116 6.54073e-05 -0.000277845
-2.8351e-05 6.43805e-06 1.48832e-05
-2.51883e-05 -2.95773e-05 -5.68804e-05
2.28901e-05 3.17363e-05 -7.23986e-06
5.18814e-05 1.0359e-05 -0.000101765
-2.06797e-06 1.79139e-06 2.80156e-06
-3.94497e-05 3.0922e-06 2.24921e-05
5.87553e-05 -1.79215e-05 3.41434e-05
-1.25869e-05 2.76176e-06 -2.38997e-05
-0.00017027 0.000198042 0.00017703
1.80253e-07 -9.27492e-07 6.61441e-07
1.73072e-06 -1.2663e-05 5.58064e-06
-1.24028e-05 -2.78949e-06 8.56939e-06
0.00018602 -7.52279e-07 3.13205e-05
-0.000166585 -4.22641e-05 3.5418e-05
2.22709e-05 1.30354e-06 1.66256e-05
0.00012233 2.15941e-05 5.63174e-05
-8.75347e-07 2.14977e-06 1.18401e-06
-1.29453e-05 -2.89222e-05 3.5038e-06
-4.47113e-05 4.77155e-05 -8.13959e-06
0.000168996 0.000299691 -0.000275809
2.88114e-05 0.000138536 -2.44581e-05
-0.000118016 -4.9561e-05 -6.09078e-05
8.08901e-06 -4.37437e-07 -2.61571e-06
-4.1203e-05 3.96222e-05 -4.04702e-05
5.29697e-05 -4.71834e-06 -5.74872e-05
-0.000116529 0.000320697 -0.000403032
9.93243e-07 -0.00011185 -0.000243815
4.12114e-06 4.22412e-05 1.18357e-05
6.31577e-05 0.000158195 6.73588e-06
6.7265e-05 -0.000169789 -3.13166e-05
-4.95514e-06 -2.1201e-05 4.7353e-06
-0.000381377 -0.000273404 -0.000457102
0.00039954 0.000362755 -0.000196016
-2.46867e-05 -2.41023e-05 4.70156e-05
-1.93726e-06 1.41922e-05 -5.09678e-06
5.51852e-05 -3.47708e-05 2.55416e-05
1.41548e-05 3.35167e-05 3.12287e-05
4.41968e-05 1.15695e-06 -4.80146e-05
1.79327e-05 8.55181e-05 4.25864e-05
-5.66322e-05 3.28435e-05 2.75316e-05
2.8656e-05 -1.32948e-05 -7.09651e-06
8.6006e-07 7.64245e-06 -4.38953e-06
-1.4286e-05 3.81709e-06 3.06922e-06
1.38193e-05 -1.8669e-05 -1.61529e-05
7.5751e-07 3.94272e-07 -8.4216e-07
-1.21395e-08 3.6993e-08 -1.02775e-05
1.92759e-05 -1.52573e-05 1.2393e-05
-3.92245e-06 4.40229e-06 5.12311e-06
2.22325e-06 -1.41535e-06 -1.4559e-05
5.3395e-06 1.4215e-06 -7.06922e-07
-9.90845e-06 -1.63166e-08 -4.90327e-06
1.05801e-06 6.03272e-07 2.70627e-06
-8.91484e-06 -3.00873e-06 1.33248e-05
-1.10011e-06 1.1635e-05 -1.41871e-05
6.84243e-07 4.01579e-07 4.23134e-07
1.22211e-05 3.86954e-06 1.60069e-05
-3.5775e-06 3.57058e-06 7.29669e-06
-1.39148e-08 -1.56571e-06 8.73734e-07
-7.72349e-06 2.67879e-05 1.04517e-05
9.76798e-05 2.3194e-06 6.90503e-05
-3.97235e-05 -2.01391e-05 3.48049e-05
-5.9132e-07 -1.29416e-08 1.06692e-06
3.20685e-05 2.23994e-05 6.26027e-05
-4.17479e-05 -8.14522e-06 -1.91463e-05
-2.04437e-06 -6.41249e-07 3.36775e-06
-3.47082e-05 -8.04146e-06 5.23498e-05
-4.61815e-05 5.19771e-07 5.15032e-05
9.43724e-05 -1.33596e-05 0.000105059
1.53826e-05 3.37361e-06 1.44054e-06
-3.60326e-06 1.10671e-05 -6.60184e-06
1.12543e-05 1.5108e-05 -1.37683e-05
-5.34963e-06 2.16233e-05 1.52095e-05
2.56736e-06 -1.55323e-06 2.55816e-05
-2.93144e-05 -1.54188e-05 4.72094e-05
-1.84933e-05 -5.59332e-06 -1.18467e-05
4.30046e-05 2.75692e-05 4.67845e-06
1.42301e-05 -2.0833e-05 -8.6259e-06
-9.05485e-06 -4.34996e-05 -4.53005e-05
1.26909e-05 4.04475e-05 2.17345e-05
-6.06927e-06 1.77645e-07 5.91169e-06
-1.36692e-05 2.69688e-06 7.39712e-06
2.70026e-06 -3.07388e-08 2.47358e-06
-3.77809e-06 7.10809e-06 -3.27719e-06
3.23055e-05 1.95292e-05 3.00684e-05
-3.51843e-05 -4.02263e-05 4.70836e-05
-4.26407e-06 1.05699e-06 3.58599e-06
4.56284e-06 2.56583e-05 -3.46877e-05
3.29193e-05 4.70718e-06 4.22615e-05
1.6625e-05 9.95801e-06 -6.77178e-06
7.87528e-07 -3.65092e-06 5.46063e-06
0.000213247 0.000361581 5.33543e-05
-0.000119131 -0.000137389 0.000233768
1.43151e-05 -2.5107e-05 -8.79131e-06
1.32748e-05 -5.59665e-07 2.76415e-05
8.33445e-05 -8.93802e-06 -4.75733e-06
-4.3027e-05 -1.27005e-05 3.61889e-05
4.97472e-05 1.58647e-05 3.27722e-05
9.77026e-06 -1.23532e-05 -6.5774e-06
5.60159e-05 3.59792e-05 -9.56695e-06
-0.000199571 0.000201762 -6.32441e-05
-0.000211598 1.99736e-05 -0.0002663
-2.14822e-05 -4.82817e-05 -0.000106863
3.27609e-05 7.68349e-05 -0.000141966
-2.47983e-05 -5.06688e-05 6.80721e-05
-3.56421e-05 -3.15911e-05 4.87991e-05
-4.64776e-05 -2.23371e-05 1.37984e-05
2.62027e-05 -2.83836e-05 8.29731e-06
2.56056e-05 1.15924e-05 -5.01552e-06
1.78971e-05 1.26972e-06 -2.56018e-05
1.02471e-05 -7.60182e-07 1.38468e-05
-0.000100765 -5.51236e-05 -2.96411e-05
-4.35169e-07 -4.14652e-06 4.09355e-06
1.52237e-05 -1.14019e-05 -9.80268e-06
-2.33476e-06 2.00681e-05 7.56431e-06
-2.0751e-05 -8.48275e-06 5.05343e-06
5.05213e-06 -1.18408e-05 -1.95892e-05
-3.50087e-06 -2.1009e-06 -5.54155e-06
-1.30779e-05 2.20848e-05 1.29667e-05
-2.73849e-06 -2.45381e-06 -0.000110456
9.29343e-08 -4.91866e-05 1.63841e-05
4.84754e-05 -5.01142e-05 -4.7822e-05
-0.000101255 -9.37517e-06 -5.29139e-05
-1.27747e-07 5.26835e-06 1.1362e-06
-4.04425e-05 -6.6303e-06 9.3133e-06
6.0967e-05 -7.22528e-05 -0.00010632
-6.62199e-06 -8.21372e-06 1.26748e-05
-5.27722e-05 5.67095e-05 1.15533e-05
-6.16242e-05 -8.47806e-06 2.40337e-05
-1.74318e-05 -6.9531e-05 2.87984e-05
2.23785e-05 3.39403e-05 3.0035e-05
3.6327e-05 2.57484e-05 -2.23872e-05
-2.35377e-05 5.72194e-05 -8.50508e-06
-3.41935e-05 2.68293e-06 -1.58697e-05
-4.22206e-05 -2.01271e-05 2.86482e-05
4.99489e-06 1.31101e-05 5.51488e-05
2.28275e-06 2.54501e-05 1.73798e-05
-0.000126945 -0.000400785 -0.000313272
0.000534555 -5.13861e-06 -0.000155996
1.26169e-05 -8.75867e-07 8.0538e-06
-5.1395e-06 1.02435e-05 5.45973e-06
6.0419e-06 -2.75024e-05 1.36572e-05
-8.76234e-06 -5.28704e-05 7.4136e-06
2.82073e-06 8.249e-07 1.73207e-06
-4.16572e-06 -1.35248e-06 -1.03589e-05
-4.1509e-07 4.71023e-05 1.52078e-05
4.48864e-07 3.01752e-05 2.26867e-05
-2.49159e-05 3.56464e-05 9.60343e-08
3.27303e-06 7.69876e-05 -8.70175e-05
4.04485e-05 -0.000115759 -4.57715e-05
3.00611e-05 8.03655e-06 4.733e-06
4.64857e-06 -2.76402e-05 -1.46653e-05
2.64367e-06 3.20691e-05 5.52614e-05
4.55305e-05 -7.91061e-05 7.93168e-05
0.000204792 -8.1193e-05 -0.000312219
1.71132e-05 -1.32788e-06 -3.80013e-05
-0.000397228 -0.000175854 -0.000487105
-3.17418e-05 -1.76759e-05 -4.50434e-05
0.000144642 -0.000364289 3.36848e-05
1.37023e-05 9.97336e-06 -6.25722e-05
-2.37429e-05 8.29861e-05 6.03063e-05
-3.86679e-06 1.51264e-05 1.0675e-05
-0.000116706 0.000381042 -0.000724078
6.95373e-06 1.10986e-05 5.91185e-06
3.36969e-06 -3.62208e-05 7.02929e-05
-1.66976e-05 5.97159e-06 7.30633e-06
1.31364e-05 1.09477e-05 1.36502e-05
1.70335e-05 1.081e-06 -1.18558e-05
7.6294e-06 3.77707e-05 -3.42945e-05
-5.40994e-07 4.12863e-05 3.70044e-05
4.52958e-05 1.37885e-05 -1.45762e-05
-3.59545e-06 -4.52431e-06 1.10809e-05
-2.76809e-05 -1.3175e-05 1.45105e-05
3.26082e-06 5.90203e-07 4.19393e-07
4.00755e-05 -8.2004e-07 2.30584e-05
1.81925e-05 7.05626e-06 1.37003e-05
-1.15414e-05 -4.50779e-07 6.60529e-06
2.25762e-05 -1.00544e-05 -9.84269e-06
5.5428e-06 1.1181e-05 2.94729e-06
3.52945e-06 -2.36917e-06 1.04669e-05
1.69532e-05 1.18356e-05 -3.83558e-06
-2.44414e-05 -3.32294e-05 7.66708e-05
-1.77534e-05 1.00581e-05 3.37866e-05
-5.00114e-06 2.10144e-05 1.1423e-05
-2.66966e-07 -1.03604e-06 -2.39369e-05
-3.34068e-05 2.23045e-06 3.04881e-05
1.39215e-05 -4.73421e-06 4.2401e-06
5.6514e-06 -2.56592e-06 -1.03178e-05
3.4215e-07 -1.21994e-06 -1.48064e-06
2.80698e-06 7.09253e-06 1.38214e-05
-2.06465e-06 -9.37564e-06 1.79003e-05
1.31318e-05 5.62563e-06 1.4691e-05
-1.55281e-06 1.00596e-05 -7.18447e-06
1.66695e-06 -6.09167e-06 -2.32396e-06
6.95017e-06 7.80629e-06 -3.96341e-06
1.04187e-05 -1.07641e-05 2.02105e-06
-9.99302e-06 -1.68896e-06 1.06782e-05
-1.50133e-05 -3.634e-06 -1.64503e-05
-3.84166e-05 -4.96006e-06 -2.39941e-05
8.75614e-07 -3.00885e-05 0.000103563
-2.172e-05 1.56693e-05 3.09533e-06
5.30102e-06 9.13006e-06 -8.57784e-06
7.13339e-06 6.48504e-06 1.07929e-05
-1.79779e-05 4.40162e-06 -7.05758e-06
1.54901e-06 -1.00685e-06 3.07642e-06
1.85985e-06 -1.29822e-05 -8.14261e-06
-3.16781e-06 2.76132e-06 -1.29525e-06
-4.38763e-06 9.43917e-07 3.21593e-06
-2.38748e-06 1.54137e-06 -4.48712e-07
1.38489e-06 6.67809e-07 5.29485e-06
2.18309e-05 2.25886e-06 2.60902e-05
1.69675e-05 -3.38983e-05 -2.2965e-05
5.7064e-06 2.61485e-06 -2.91121e-06
3.79842e-06 -7.90374e-06 6.5454e-06
1.70997e-06 -1.1443e-08 -2.80501e-06
-1.05743e-05 4.27342e-07 1.53807e-05
-7.82037e-06 -3.74999e-05 3.73129e-06
4.01829e-05 -1.90776e-05 2.14064e-05
4.71474e-05 -9.20824e-06 -5.04369e-05
-1.16701e-05 4.34344e-05 -0.000131613
-2.69034e-05 -4.55135e-05 -5.45843e-05
-6.51958e-06 -6.14314e-06 8.66114e-06
1.33544e-06 -1.44645e-05 1.76792e-05
-1.85287e-06 -7.91164e-06 -8.06995e-06
-7.80648e-06 9.71465e-07 5.70846e-06
-1.88746e-05 -2.10692e-05 1.20558e-05
-4.02546e-06 1.39499e-05 6.52418e-06
2.66702e-06 6.26625e-07 1.27579e-06
-1.5033e-05 -8.80329e-06 -4.90498e-06
-1.65671e-05 -2.53927e-06 1.48347e-05
4.96181e-05 4.0103e-05 6.48526e-05
2.59501e-06 -1.61338e-06 -1.82121e-06
-4.25583e-05 3.83906e-05 7.64737e-05
3.54651e-06 -5.30403e-06 -1.35033e-05
-5.5444e-06 -2.23961e-05 -3.14872e-05
6.41691e-06 -1.04554e-05 -8.10887e-07
3.37351e-09 -4.16363e-07 4.16765e-07
-1.06695e-06 -6.98619e-07 -1.47975e-05
-9.54422e-06 -2.85474e-05 -0.000100713
2.43372e-06 -4.19104e-06 3.54606e-05
2.22951e-05 1.93034e-05 1.42552e-05
-5.73785e-05 -1.78192e-05 -2.50463e-05
2.63632e-05 4.81209e-05 3.09864e-05
-9.65109e-06 -2.68526e-06 9.47771e-06
-6.25986e-05 -5.67185e-07 -3.9219e-06
1.93727e-05 7.5421e-06 6.31623e-07
-0.000168408 -1.31678e-05 -1.8148e-06
-8.51363e-06 -3.27366e-05 -6.16519e-05
-2.17594e-06 -1.03402e-05 9.62762e-06
8.40848e-06 -1.50614e-05 5.80668e-06
5.25537e-06 2.00684e-05 -2.25183e-06
-1.37647e-05 -4.51326e-06 -8.26461e-06
3.77752e-05 1.57465e-05 -5.49772e-05
1.63246e-05 8.98809e-06 -4.34085e-06
1.3386e-05 1.38217e-05 -1.83553e-05
1.19428e-08 9.72161e-07 -5.76712e-07
-3.71406e-06 1.33661e-05 -9.17904e-06
2.83792e-05 -6.05862e-06 2.59352e-05
-1.61317e-05 -1.7033e-05 2.13102e-05
-6.18979e-06 -1.87911e-05 -7.4378e-06
2.47257e-06 -1.89791e-06 -2.07001e-06
2.13818e-07 3.40628e-06 -6.87695e-05
6.35189e-05 3.12887e-05 -3.28344e-05
3.83681e-06 1.57456e-05 2.07795e-06
5.99991e-05 1.22117e-05 4.02179e-05
-1.85736e-06 1.32388e-06 3.30908e-07
3.15154e-05 2.10983e-05 -2.15423e-05
2.98898e-05 6.64669e-06 2.17649e-05
-7.47446e-06 -1.58192e-05 1.64019e-05
-6.67875e-06 1.42854e-05 2.30034e-05
-3.88176e-05 -2.24671e-05 9.79414e-05
3.07873e-06 -2.21247e-05 1.13182e-05
4.00715e-05 7.69893e-06 -4.51791e-05
-9.1751e-06 4.78989e-05 5.7539e-06
-0.000113257 0.000105651 -0.000195937
-2.36252e-05 -5.1196e-05 -3.66816e-05
1.53261e-05 -1.63448e-05 1.14937e-05
1.82383e-05 1.1053e-05 1.45549e-05
5.26583e-05 -0.000138836 3.62541e-05
4.84203e-05 1.29225e-05 1.19109e-05
2.9114e-05 4.30074e-05 -5.23772e-05
7.55373e-06 4.28129e-06 -7.90296e-06
-7.04794e-08 2.12983e-09 4.30968e-07
-8.58269e-07 -1.48019e-06 9.31224e-06
1.58045e-05 4.32951e-06 -2.87599e-06
-4.49616e-05 -0.000109989 -1.76573e-05
1.46398e-05 -1.97416e-05 5.30016e-05
0.000176024 3.16709e-05 -0.00016733
-5.19594e-05 0.000140949 2.94902e-05
5.65878e-05 0.000194179 -0.000163751
4.5773e-05 -3.51036e-05 -2.37843e-05
4.35034e-06 -0.000109533 6.2845e-05
4.21934e-05 4.23594e-06 1.68776e-05
0.000153828 5.58616e-05 -0.000199702
-9.71073e-05 0.000118178 5.79896e-05
-1.47124e-05 -1.20462e-05 5.16981e-06
-2.65718e-06 5.76291e-07 4.26706e-06
2.11146e-05 -1.08394e-05 1.39794e-05
-2.15288e-06 1.14463e-06 4.63968e-06
2.66181e-05 3.54602e-05 2.30759e-05
-0.000134827 0.000269372 7.63251e-05
2.28646e-06 1.99994e-06 -1.33313e-05
2.1926e-07 -1.51521e-05 -2.00256e-06
3.57454e-06 8.24672e-06 1.68012e-07
-0.000183666 -1.30979e-06 8.4243e-05
-4.22791e-05 -3.33581e-05 -9.58292e-06
1.1642e-05 1.16863e-05 1.28078e-05
6.23877e-06 -5.30868e-05 2.36551e-05
2.00616e-05 -2.9353e-06 -4.64231e-06
-6.05069e-05 -1.15123e-05 3.31767e-05
-3.18259e-05 -2.75524e-05 5.8762e-05
9.30601e-06 -1.66223e-05 -5.17414e-06
-7.44357e-07 1.30273e-06 -1.67401e-05
7.96335e-06 -8.92802e-09 -1.28678e-06
-2.15193e-06 1.23403e-06 -9.21231e-06
-5.8057e-07 -4.06207e-06 -1.86077e-05
-1.13697e-05 -5.88484e-05 -0.000106801
-8.22594e-06 -2.09568e-05 5.98531e-06
2.73513e-05 -1.23908e-06 1.45226e-05
-2.03414e-05 5.09047e-06 3.36994e-05
-1.50502e-05 7.68048e-06 4.1338e-05
-1.43921e-05 -5.90604e-05 -2.74883e-05
2.50085e-05 -1.06702e-05 -4.09563e-05
-3.04726e-05 1.37768e-05 1.65356e-05
3.28038e-06 -7.18532e-05 1.75482e-05
2.11892e-05 -3.61384e-05 5.72902e-05
2.39514e-06 5.48062e-05 1.79631e-05
-2.77492e-06 -3.13819e-06 3.84693e-06
7.93186e-06 7.62073e-06 -1.85512e-05
1.50123e-05 1.40259e-05 -3.14451e-06
2.23278e-05 2.93946e-05 -1.27011e-05
-1.61133e-05 -4.02581e-06 -3.13491e-06
-4.61306e-06 4.55668e-05 3.09225e-05
1.48973e-05 7.13186e-05 5.13756e-06
3.42178e-06 2.88357e-05 1.49858e-05
-3.48747e-06 4.54701e-06 2.10684e-06
1.68561e-05 -2.56451e-06 1.06998e-05
-8.08961e-07 -9.33752e-07 5.97841e-07
-2.28604e-08 3.48645e-07 -8.80901e-06
6.48611e-06 -4.93275e-06 1.38517e-06
-2.28467e-05 -9.69969e-05 0.000294115
-3.31758e-06 -5.95687e-06 -2.2123e-05
5.68698e-06 3.23103e-06 -1.5116e-05
1.49744e-06 -2.22097e-06 1.36101e-07
1.67728e-05 5.12975e-06 1.81995e-06
-7.02529e-05 1.45489e-05 -4.07512e-05
6.44418e-05 -3.3823e-06 0.000210649
1.54107e-05 -3.33816e-06 -3.84386e-05
-9.03782e-05 5.18667e-05 -1.38075e-05
-2.51729e-05 -6.58671e-06 2.2104e-05
-2.40287e-06 1.29264e-06 1.89376e-05
-1.19803e-05 8.61439e-06 -8.9012e-06
-2.38702e-05 7.18957e-07 -1.40751e-05
-6.29036e-05 5.76564e-05 -0.000241389
-4.6276e-06 1.731e-05 5.49823e-05
-1.37028e-05 2.6307e-06 -1.34145e-06
-5.53933e-06 -4.09146e-06 -5.14157e-06
4.22369e-06 8.02149e-06 5.50467e-06
-2.46676e-06 -1.27048e-06 4.03284e-07
1.0409e-06 3.87765e-06 3.31551e-06
-0.000147667 -0.000110925 0.000253527
5.91169e-05 1.55763e-07 9.86772e-05
2.9424e-06 5.12701e-07 -2.1589e-06
2.12214e-06 6.7885e-06 -4.12688e-06
-1.25369e-05 3.5683e-06 -1.41052e-05
-2.59247e-06 -1.08239e-05 1.39133e-05
1.10401e-06 1.08688e-06 1.65219e-05
-4.68495e-06 2.13955e-05 1.3729e-05
4.90262e-06 1.60951e-06 -3.02993e-06
-7.52053e-06 6.97985e-06 -8.9793e-06
-8.19797e-06 2.88309e-06 -6.57442e-06
1.18781e-05 -8.17067e-05 7.30051e-06
4.15898e-05 4.09461e-06 -1.31439e-05
-3.2716e-05 5.56505e-06 3.07157e-05
-2.81053e-05 -3.11422e-05 -3.92542e-05
-8.08251e-06 1.13472e-06 -8.28441e-06
4.6418e-05 -9.32454e-07 1.36169e-05
2.19952e-05 -1.01604e-05 8.05412e-06
-7.34786e-06 -1.63394e-06 2.52826e-05
-2.59685e-05 -1.14259e-05 5.61463e-06
-2.14455e-06 3.2929e-05 1.19483e-05
-3.95309e-07 1.43154e-05 1.16197e-07
-7.04193e-05 3.3458e-05 -4.14686e-05
4.71478e-05 1.3797e-05 5.00969e-05
-2.45612e-06 -6.19281e-05 4.34507e-05
-7.19255e-08 2.01133e-07 1.33313e-06
-3.76176e-06 -9.45812e-07 1.75982e-05
-4.69743e-05 -2.0171e-05 9.30342e-05
-3.81591e-05 -6.36053e-05 5.01905e-05
1.97926e-05 7.29123e-06 1.60975e-05
-2.39596e-05 1.83069e-06 -8.99579e-05
-6.44708e-06 -5.01504e-05 -2.04041e-05
-9.68129e-06 -3.19181e-05 -9.41684e-06
-3.97558e-07 1.00126e-05 3.9087e-06
1.95464e-05 4.75909e-06 -2.80322e-06
-2.31081e-06 -7.81896e-07 -6.74512e-06
1.83114e-06 1.12386e-05 1.03312e-06
1.04583e-05 2.2705e-06 1.42469e-06
9.46663e-06 8.56671e-07 1.5052e-06
-4.10946e-08 -1.34579e-07 -5.26085e-07
4.65237e-06 7.639e-06 1.39583e-05
2.31375e-06 1.02328e-05 -9.79402e-06
1.74086e-05 -1.05396e-05 -1.56896e-05
-7.98023e-06 1.13691e-05 -1.67372e-05
-1.0852e-05 9.3155e-07 -4.60851e-05
-4.27608e-05 -9.97164e-05 7.07255e-05
7.59333e-06 8.48705e-08 5.58099e-06
-6.34224e-06 -6.61385e-07 2.83759e-06
1.64932e-05 -1.0645e-05 -1.48825e-05
-5.1377e-05 2.48411e-06 -5.49673e-05
-0.000113011 -6.39189e-06 2.64552e-05
-7.90188e-06 -7.9281e-05 -6.72298e-05
1.10239e-05 3.8706e-06 -3.76678e-06
4.6513e-05 -1.93076e-05 -1.77836e-06
-7.40835e-06 -2.03541e-05 -1.06441e-05
2.32307e-05 1.32836e-05 1.18141e-05
-3.50201e-05 -9.26528e-05 4.90834e-05
4.64968e-05 -2.08717e-05 6.60825e-06
-8.50676e-06 -1.39501e-05 1.02431e-05
9.50477e-06 5.45042e-06 -5.46291e-06
1.54857e-05 -3.54714e-05 -3.22044e-05
-2.41466e-06 -1.2677e-05 -4.95755e-06
-1.70584e-05 7.54651e-06 -4.03503e-05
-8.39441e-07 -5.37169e-06 2.12603e-05
-2.79728e-06 4.4806e-06 -4.60874e-06
-3.58586e-06 6.09156e-06 -2.56313e-06
-7.72126e-08 1.29331e-06 -5.16379e-07
-2.53598e-06 3.78158e-06 -5.24405e-06
5.11302e-06 1.07149e-05 9.09632e-06
0.000321971 1.63954e-05 0.000583906
1.80813e-05 -1.08928e-05 -8.60146e-06
1.99531e-05 1.26344e-05 0.000116217
-4.4616e-05 -6.04377e-06 2.39761e-05
6.65917e-08 5.01442e-05 -3.82563e-05
6.73252e-05 0.000111018 -0.000221973
0.000143922 0.000117975 0.00017254
-4.26718e-05 4.68901e-05 8.04828e-05
5.64379e-05 -1.6229e-05 0.000146714
-1.23594e-05 -1.85348e-05 -1.54632e-05
1.50568e-05 2.32669e-05 -2.57408e-05
-2.9716e-06 -2.35229e-05 5.96414e-05
3.92531e-05 4.10929e-05 -3.31493e-05
-0.000105395 -3.96248e-05 -9.57479e-05
-5.30684e-05 -3.0474e-05 6.85106e-05
1.46989e-05 -5.12956e-06 7.46947e-05
8.98283e-05 2.14293e-07 -5.37759e-05
-7.05307e-06 -1.00925e-05 1.04966e-05
-5.4049e-07 3.95775e-05 -2.60072e-05
5.73062e-05 -0.000100347 8.61258e-05
-1.81946e-05 2.83695e-06 -4.7456e-06
-3.781e-06 -2.53622e-06 -1.37476e-05
-5.4909e-07 1.8201e-06 -1.92564e-06
1.70352e-05 1.2769e-05 2.27145e-05
3.99937e-06 -1.83349e-05 -1.60122e-05
1.50249e-05 3.68732e-05 1.22074e-05
-1.968e-07 5.60703e-07 -1.81569e-06
-8.72648e-07 -1.58298e-05 -6.05357e-05
1.24682e-06 -2.97598e-06 2.60841e-06
-1.0239e-05 0.000124448 3.56288e-05
0.00011837 -4.65923e-05 2.25527e-05
5.48996e-05 -3.10052e-05 7.98834e-05