<?xml version="1.0"?>
<VTKFile type="UnstructuredGrid" version="0.1" byte_order="LittleEndian" compressor="vtkZLibDataCompressor">
 <UnstructuredGrid GhostLevel="0">
  <Piece NumberOfPoints="1880" NumberOfCells="1880">
   <PointData>
    <DataArray type="Float64" Name="Elongation" NumberOfComponents="3"/>
-6.77055e-06 -2.96807e-07 1.43667e-05
-7.68124e-06 7.50753e-06 -8.36168e-06
3.03771e-05 4.19104e-05 2.50978e-05
-1.67879e-05 2.23961e-05 -1.30212e-05
4.63687e-06 -3.00855e-05 -1.80858e-05
-2.69593e-05 3.18413e-05 -2.00489e-05
-7.04356e-05 -4.56508e-05 -4.61221e-05
-0.000147041 6.71995e-05 5.54596e-05
0.000192529 -7.94097e-05 -0.000162232
-8.27071e-05 -0.000108807 2.68363e-05
1.00872e-05 2.98741e-05 -3.47407e-05
3.19676e-05 -1.67106e-05 1.29365e-05
-3.35265e-05 -3.9968e-05 1.56329e-05
7.66622e-06 -2.49585e-05 4.31618e-06
1.79371e-05 -6.92451e-06 5.2159e-06
1.3482e-05 2.35381e-05 -4.06027e-05
-3.16768e-05 4.26707e-05 7.99821e-05
-2.52883e-05 -7.40755e-06 5.91646e-05
0.000154158 7.86963e-05 0.000122
6.59674e-05 -6.36821e-06 7.03404e-05
-3.75596e-05 -3.06671e-05 1.64925e-05
-1.82134e-05 3.83087e-05 -6.98294e-05
-7.30685e-06 1.97327e-05 2.13101e-05
-5.17155e-05 -1.17164e-05 3.78896e-05
-0.000306417 -0.000115717 5.23041e-05
0.000213996 -8.2923e-05 -0.000240076
-2.98143e-05 0.000212898 -0.000251121
7.18083e-06 -2.3193e-05 -3.45926e-05
-1.58629e-05 4.69789e-06 -2.4476e-05
6.46577e-06 2.69797e-06 -1.33717e-05
-2.29689e-05 9.88948e-06 4.3917e-05
-2.5294e-05 1.87398e-05 -6.18368e-05
6.57869e-05 6.87233e-05 7.66452e-06
-9.91462e-05 4.22017e-05 -6.68523e-05
-0.00076381 -0.00052016 0.000751247
-5.59634e-06 1.13179e-05 -6.55541e-06
2.5352e-05 4.75228e-05 1.72658e-05
1.99478e-06 -1.86674e-06 9.21644e-08
-4.09525e-07 7.70218e-07 -4.40099e-07
-0.000138643 0.000219435 0.000287568
0.000221862 5.61585e-05 0.000185234
-0.000413061 0.000260222 -0.000106983
-4.16948e-05 3.17338e-05 -3.32298e-06
7.74559e-05 -5.65602e-06 -6.44003e-05
-7.38082e-05 7.9525e-05 -5.43709e-05
2.8999e-05 1.45665e-06 -4.01566e-05
5.0012e-06 -2.63364e-06 -2.33503e-06
-1.273e-05 1.50952e-05 -2.00555e-05
2.63935e-05 9.98767e-06 3.56727e-05
0.00026163 0.000230031 -0.000341846
5.57342e-06 6.22544e-06 -9.40146e-06
1.26183e-05 7.17102e-06 1.61151e-05
0.000225066 5.11256e-05 0.00025836
-0.00108573 0.000246538 -0.000525157
-4.49739e-05 0.000174269 -5.19251e-05
-5.41012e-05 -5.85809e-05 -6.95089e-05
-5.53715e-05 -0.000155998 -0.000126465
0.000285176 0.000408611 -0.000254367
-0.000453945 8.46358e-05 0.000373246
-0.000713128 -0.000285456 0.000715996
0.000138491 0.00028362 0.000306188
-6.799e-06 8.19975e-06 3.26557e-07
-1.55974e-06 5.83276e-06 2.77517e-06
3.54392e-05 5.16203e-05 6.18795e-05
-2.61713e-05 1.18193e-05 1.21655e-05
0.000783826 -0.000143891 0.000167679
1.17804e-05 3.46757e-06 5.11023e-06
-1.64341e-05 -5.59514e-05 -3.08152e-05
-1.54768e-05 1.95574e-05 -0.000131889
-2.2169e-05 -3.15125e-06 1.3404e-05
2.9936e-05 -0.000376944 -0.000108501
-3.00279e-05 1.8264e-05 -1.58507e-05
-0.00012399 -2.59109e-05 8.85672e-05
-7.18531e-05 9.62036e-05 0.000142806
-3.58371e-06 6.66248e-07 -2.87004e-06
4.47415e-05 4.53357e-05 -3.06773e-05
0.000180315 -4.27121e-06 -5.0076e-05
-9.11583e-06 9.92256e-06 -6.17654e-07
-1.15273e-05 2.13884e-05 2.8147e-05
-1.51125e-06 8.22799e-06 5.22429e-06
0.000176009 -5.92063e-05 -0.000106499
-1.98634e-05 3.17956e-05 4.06842e-05
8.4615e-06 4.5164e-05 3.89406e-05
-3.98651e-05 8.43375e-05 5.80313e-05
-0.000177023 -8.81766e-05 1.23214e-05
3.0687e-05 -7.05563e-05 4.90615e-05
7.18126e-05 3.49775e-05 -3.13628e-05
-2.09224e-06 -8.99503e-06 -8.08422e-06
0.000177203 1.11042e-05 -0.000113753
-1.0816e-05 3.89753e-05 -6.94923e-06
-3.69001e-06 4.00357e-06 7.73851e-05
2.60997e-05 3.35588e-05 -3.5915e-05
9.38747e-06 -2.42411e-05 -3.93187e-05
1.26414e-05 -2.48928e-05 4.57606e-05
2.10718e-05 -5.56278e-05 -3.61761e-05
9.74936e-05 0.000414195 -0.000322686
6.26275e-06 5.58417e-05 4.42203e-05
6.91102e-06 4.11957e-05 2.89845e-05
0.000282211 -0.000102079 0.000605409
-0.000169953 -3.73333e-05 9.91426e-05
5.72981e-05 -0.000202493 0.000319654
2.65695e-05 0.000470014 0.000397851
2.07145e-06 -2.1854e-06 2.12601e-06
1.11662e-05 3.33057e-05 -4.52526e-06
-1.36398e-05 -9.74884e-06 1.78574e-05
8.54464e-06 -2.57065e-06 2.01945e-05
-0.000395241 -0.000185371 -0.000246306
-6.78834e-06 1.08304e-05 1.14861e-06
5.16525e-05 4.06471e-05 -3.76519e-05
-4.13275e-05 2.66334e-05 -7.91284e-06
7.621e-05 -2.72738e-05 -8.74917e-05
-2.37815e-05 3.03104e-05 -4.38818e-05
7.50514e-05 -0.000117384 0.000176603
0.000140249 -0.00024212 -0.000235927
5.05295e-05 7.0879e-05 -0.000178821
-1.17362e-05 -1.68877e-05 0.000248114
-4.44203e-08 1.25622e-05 4.72752e-06
-1.07143e-05 -1.05556e-05 4.3302e-06
-2.2052e-06 1.22719e-05 6.75687e-06
-0.000129901 0.000333408 0.00044597
8.18701e-05 6.59665e-05 0.000729817
1.40817e-05 -1.56499e-05 -6.32597e-07
3.15548e-05 7.28012e-05 -4.78585e-05
1.67634e-06 2.58821e-05 2.8907e-05
5.34142e-05 1.26799e-06 -5.41313e-05
0.000176194 -0.000112358 0.000380296
2.95179e-06 -1.58006e-05 9.18196e-06
-3.85542e-06 -5.89958e-05 5.61339e-05
3.80497e-05 6.29266e-05 -0.000245958
0.000115425 -0.000191874 -5.00035e-05
9.48347e-06 -1.58846e-05 -5.09777e-05
-0.000136414 -9.23395e-06 -0.0002313
4.4572e-05 -6.98199e-05 9.67698e-05
1.95873e-05 -0.000151537 8.02667e-05
0.00014707 -5.15189e-05 0.00022171
2.24148e-05 -6.04672e-07 8.16718e-06
2.14263e-05 4.86628e-05 5.07879e-05
3.86039e-05 3.55761e-06 9.12926e-06
-3.35024e-05 -2.76609e-05 -3.42141e-05
5.50016e-06 5.52037e-05 1.4017e-05
-0.000121932 4.16044e-06 0.000133866
0.000459577 0.00027191 9.90379e-05
-0.000587272 0.000221389 -0.000919066
-2.80749e-07 2.43507e-05 9.11335e-06
1.16502e-05 -0.000146033 0.000252329
8.96996e-05 2.10196e-05 -1.85293e-05
-9.91092e-06 1.13932e-05 3.65074e-05
6.72795e-06 9.25761e-07 3.41873e-06
-6.2206e-05 0.000234544 -0.000152475
-0.000231197 -0.000171158 -0.000497815
-0.000223296 0.000362333 -0.000216728
-1.38884e-07 -0.000125422 8.41214e-06
-1.82732e-05 2.08921e-05 4.39977e-06
-3.60078e-06 4.96236e-06 6.52348e-08
-1.88771e-05 0.000234185 0.000311078
0.000229366 -1.78387e-05 0.000436028
0.000353805 0.000217346 -0.000185422
0.000243908 0.000143801 0.000298905
0.00190122 8.1784e-05 0.00011203
-1.3087e-06 -4.10498e-06 3.93576e-06
-0.000392822 0.000104159 0.000218925
7.63893e-05 -0.000485122 -0.000140878
-9.80362e-06 -7.45403e-06 5.14476e-07
7.75527e-05 7.93776e-05 -0.000118716
8.09274e-06 -5.1462e-05 -2.42059e-05
2.54616e-05 -6.59617e-05 3.61152e-05
3.83024e-06 -2.04348e-06 -1.91522e-06
1.06849e-05 1.8754e-06 -6.54927e-06
4.9915e-07 1.01302e-05 -1.63772e-05
-1.27419e-05 -5.08239e-06 -2.0086e-05
1.82936e-05 -5.05763e-06 -2.0952e-05
2.95288e-05 1.52891e-05 5.75652e-05
6.88564e-05 -2.98026e-05 -0.000104905
-0.00016406 -0.000175623 0.000399357
-0.000280884 -0.000136411 -0.00033004
-2.45609e-05 0.000129309 0.000355712
-6.40478e-06 -0.00018547 -0.000367552
2.04746e-05 -1.53197e-05 2.40522e-05
-0.000120273 2.56382e-05 -1.32821e-05
1.97161e-06 -4.21385e-05 5.92757e-06
5.26397e-06 -2.40048e-05 9.65388e-06
1.48965e-07 -1.34455e-06 -2.85594e-06
-4.4923e-05 -8.71969e-07 7.95401e-05
2.79187e-05 3.85106e-05 1.91032e-05
2.40665e-05 2.97157e-05 -7.91758e-06
2.51897e-05 2.06414e-05 4.87685e-05
9.58054e-05 2.27132e-05 6.73378e-05
0.000121639 0.000208302 -0.00025755
9.75134e-08 3.03105e-08 5.14253e-08
-0.000359638 -5.52574e-05 -0.000354388
-6.528e-06 3.00987e-05 5.1448e-05
-3.40464e-05 1.53742e-05 -0.000103122
1.26129e-06 3.91151e-06 1.41693e-05
7.3008e-05 0.000266121 -0.000305754
-0.000245401 0.000226779 -2.80222e-05
-3.1465e-05 3.01612e-05 -0.000254678
-1.59587e-05 -4.89565e-06 -0.000100635
-1.25419e-06 -1.48539e-06 -7.3554e-06
9.04541e-05 -6.61695e-05 1.10719e-05
3.94448e-05 -7.93209e-05 -2.58078e-06
-9.21131e-05 0.000182248 -0.000857311
0.0003573 -0.000111435 -0.000132103
-7.60261e-06 0.000379001 0.000101691
9.35984e-06 -3.43505e-05 -1.01619e-05
-1.58817e-06 1.49525e-06 1.31634e-06
1.54922e-05 2.28278e-05 1.71579e-05
-2.16105e-05 -1.28647e-05 2.36498e-05
-4.6968e-05 -0.00054765 0.000376502
-6.89078e-05 5.24198e-05 4.62756e-05
-3.27942e-05 0.000835524 0.000219542
-5.36444e-05 0.000190856 0.00019621
-2.28836e-05 -1.04004e-05 4.98568e-06
-6.36087e-05 1.7634e-05 -4.59362e-06
-5.54779e-05 -0.000233541 -9.62275e-05
-4.17434e-06 -0.000621459 0.00191674
-0.000133606 6.56728e-06 -8.51461e-05
-0.000361347 0.000480867 -0.000475034
1.28978e-05 -1.44031e-05 7.66617e-06
2.58305e-05 5.14056e-05 -3.39649e-05
0.000290109 9.50882e-05 0.000701131
-1.18896e-05 -9.92767e-06 -7.28988e-06
0.000328132 0.000178939 -0.000507787
-4.93596e-06 6.19109e-05 -3.8234e-05
4.53996e-06 -0.000227264 -0.000240992
0.000110218 -3.74571e-05 6.2949e-05
-1.42442e-06 -5.08877e-06 -2.42157e-06
-5.6426e-06 1.64142e-05 2.88063e-06
-1.60003e-07 3.13765e-06 -3.00342e-06
3.86443e-06 1.4587e-05 1.40925e-05
-0.000184362 -0.000173453 0.0001003
-1.14659e-05 3.4405e-05 1.13336e-05
-1.34131e-05 -4.64904e-05 3.83639e-05
-8.34724e-05 6.25567e-05 -0.000150601
1.82475e-05 3.45514e-06 -1.23513e-05
5.84891e-06 4.58958e-05 2.72813e-05
-7.27342e-06 0.000159085 -0.000334403
4.27925e-05 8.84848e-06 -0.000100946
8.03933e-05 4.49465e-05 -0.000349786
-7.56526e-05 -1.94583e-05 2.48263e-05
-4.68528e-07 9.70634e-07 -3.07109e-06
7.28042e-05 -5.21104e-06 -0.000591847
1.18533e-05 1.37251e-05 -0.00026441
-1.33018e-05 1.70545e-05 6.97606e-05
8.4511e-05 0.00014583 -0.000594951
-2.25812e-05 9.61752e-06 8.97398e-05
-5.21432e-06 -4.29146e-05 -3.48142e-05
-7.09293e-07 -1.01171e-06 -1.09387e-05
8.72555e-05 0.000477985 -0.000419295
-2.03271e-05 -0.000436588 -0.000376892
-8.2759e-05 9.18944e-05 9.80922e-05
-1.22873e-05 -5.40696e-05 1.37133e-05
-8.142e-06 -6.01511e-05 0.000315225
5.59434e-06 1.51201e-06 2.63809e-06
4.52841e-07 2.16823e-07 -7.58829e-07
-3.47707e-05 0.000102646 -0.000518844
-6.87395e-06 1.9928e-06 -8.8134e-05
1.27769e-06 1.75462e-07 -1.66816e-07
6.38421e-06 1.31816e-05 -1.27221e-05
-1.83932e-07 -8.87522e-06 2.68947e-06
-7.63686e-05 1.85958e-05 1.99835e-05
1.17766e-05 -2.41322e-05 -1.94542e-05
3.79098e-05 -0.00016922 6.39952e-05
-0.000179867 0.000395691 -0.00026831
-0.000388755 -0.000336806 -0.000289393
-3.69505e-05 8.49658e-05 2.02411e-05
-1.02876e-05 0.000107522 -2.54964e-06
-6.65376e-06 3.41841e-06 3.97466e-06
2.29891e-05 5.24895e-05 -2.10899e-05
-9.77906e-06 1.06547e-05 2.2897e-05
4.40846e-05 2.2128e-05 5.19241e-05
0.000808071 0.000164407 0.00157591
3.58706e-05 -5.16194e-05 -1.74328e-05
-5.01725e-05 3.91735e-05 2.30785e-05
7.14864e-05 -2.36949e-05 9.44216e-05
-2.16788e-05 -2.98248e-05 1.71516e-05
-3.34911e-07 -6.36118e-06 9.35282e-06
-3.15783e-05 -4.21604e-05 1.2587e-05
0.00019783 0.000362283 -6.21902e-05
-5.46671e-05 -0.000165234 -7.87377e-05
-8.79446e-05 -1.52671e-05 0.000211804
-0.000250343 -9.0204e-05 0.000214325
-4.27333e-05 -5.57429e-05 -8.80034e-05
1.46393e-05 5.38e-05 -2.02826e-05
-5.03058e-05 6.39123e-05 -6.7374e-05
0.000157476 -0.000257191 -0.000157571
-2.83042e-06 7.32984e-07 1.6904e-06
-2.34376e-05 6.99318e-06 1.41325e-05
-1.23735e-05 -8.66084e-05 3.69909e-05
3.68404e-05 -1.44216e-05 1.15713e-05
-2.19063e-06 -9.79991e-07 -2.83057e-05
-3.06411e-05 0.000258288 -0.0010655
-5.00975e-05 -0.000193775 0.000145815
-1.1208e-05 8.77511e-06 1.44813e-06
8.36116e-06 -2.26966e-06 -8.68021e-06
-9.83817e-06 6.41032e-05 -3.26442e-05
2.31788e-05 2.26714e-06 3.74165e-05
-1.84434e-05 4.22497e-07 1.27088e-05
0.000138953 3.79541e-05 -0.000130539
2.67262e-06 1.9648e-06 9.80422e-06
-1.2971e-05 2.44786e-06 -2.59508e-06
0.000495836 0.000873264 -0.000781558
0.000313908 -0.000123252 6.13832e-05
-0.0015656 -0.000508736 -0.000514054
3.93985e-06 -2.22379e-06 -5.60934e-06
-0.000102288 -0.000112537 7.76338e-05
7.22658e-05 -6.4996e-05 0.000182081
-5.96287e-06 -4.32256e-06 3.82393e-06
1.04529e-05 3.70376e-06 7.09561e-07
2.67193e-05 8.5947e-06 -5.89339e-05
-7.29706e-05 -0.000126051 7.18911e-05
-4.52716e-05 -6.7843e-05 4.45621e-06
-4.89209e-06 1.58281e-05 1.85497e-05
8.50885e-06 -3.76071e-05 3.95572e-05
-6.97881e-05 1.46492e-05 6.69322e-05
7.13456e-05 -3.1739e-06 7.59985e-05
-6.07851e-06 3.27255e-05 3.8445e-05
1.59844e-05 1.42266e-05 -1.54984e-05
-3.53119e-05 -2.213e-06 2.74163e-05
-1.84184e-05 -4.30333e-06 -2.44992e-05
6.52539e-06 -6.56613e-06 7.22795e-06
-3.76594e-05 -2.62779e-06 -0.000124395
2.55414e-05 -8.54929e-05 -5.91759e-06
-3.55641e-05 5.12647e-05 -2.35041e-05
-4.71542e-05 2.32792e-05 -7.81256e-05
-1.298e-05 4.16451e-05 2.52479e-05
6.25642e-05 0.000226814 0.000556163
0.000455519 -0.000396796 -0.000151283
-5.67145e-05 0.000363255 -0.00025529
-7.15381e-05 -7.28862e-05 3.69394e-06
-4.22083e-05 -8.44126e-06 -2.73596e-05
0.000129727 7.95355e-06 7.48929e-05
1.13957e-05 2.75813e-05 2.85918e-05
-0.000338929 -0.000185757 0.000176652
-0.000336381 0.000106625 -0.000250215
0.000241937 0.000415422 -0.00034427
5.54698e-05 1.15142e-05 -6.07896e-05
-8.76829e-05 1.51189e-05 -0.00023619
-6.32066e-05 -2.9071e-05 0.000203745
-3.02674e-06 1.92976e-07 3.59405e-06
-8.12777e-05 5.15768e-05 -6.98042e-05
0.000103866 -6.55832e-05 -0.000189029
-0.000218134 3.48094e-05 -0.000144421
6.24529e-07 -4.74594e-05 6.02787e-05
3.50199e-05 0.000138698 -0.000241359
-0.000279902 -6.56136e-05 -0.000465398
1.34953e-05 4.80486e-05 1.1411e-05
0.000109975 -9.26141e-05 7.16418e-05
7.20147e-05 0.000243329 -0.0001422
-0.000450909 -0.000104636 -0.000503361
0.00043481 0.00033765 -0.000184974
-2.59848e-05 -5.12397e-05 8.64932e-05
8.22768e-06 1.40029e-06 2.26115e-05
5.07944e-05 -5.1755e-05 3.05753e-05
-6.98902e-06 2.70092e-05 -4.663e-05
1.72236e-05 2.81447e-05 3.90668e-05
-5.60415e-05 -2.4395e-05 4.59978e-05
2.83358e-05 -5.1398e-06 -1.7675e-06
-5.24208e-05 -7.27243e-05 4.32457e-05
-1.73947e-05 1.53007e-05 1.01936e-05
1.01408e-05 -7.45906e-06 -1.09687e-05
1.32497e-06 -3.4962e-06 6.74408e-06
-2.9985e-07 -1.42922e-05 9.54173e-07
1.56697e-06 -1.65075e-07 -3.52829e-06
-1.28039e-05 5.57683e-06 -0.000296542
2.85441e-05 7.09172e-06 -2.59654e-05
9.41733e-06 -5.99417e-06 -8.56871e-05
-0.000119761 -0.000114092 0.000230864
-5.25212e-05 -1.77294e-07 -5.5779e-05
1.33489e-06 4.49935e-07 1.48899e-06
-7.23241e-05 7.19803e-05 -9.74864e-07
-2.48694e-05 -3.06021e-06 -3.51536e-05
6.36659e-08 -5.23128e-08 -2.40897e-08
-9.20016e-05 -2.60768e-05 -0.000126835
-7.44049e-06 7.37283e-06 1.55585e-05
-1.74179e-05 -6.13184e-06 -5.06937e-06
-1.57422e-06 1.56031e-05 4.08132e-06
-1.70296e-05 8.45448e-05 -7.35289e-05
-6.01856e-05 2.71826e-05 8.99718e-05
2.1698e-05 4.07992e-06 4.21625e-05
3.62904e-06 -2.61702e-05 -1.67838e-05
-0.000142112 -3.25781e-05 4.48906e-06
2.94925e-05 -3.53557e-06 -3.53771e-05
-4.13197e-05 -1.99979e-06 -4.49226e-05
-5.86146e-08 -2.26319e-05 9.95467e-06
2.25174e-06 6.16538e-06 -4.78346e-06
-2.92298e-06 6.63184e-07 1.6467e-06
3.81081e-05 0.000276816 -0.000157945
9.23655e-06 -2.25878e-05 2.19464e-05
-4.28696e-06 1.32213e-05 -5.43106e-06
-1.53629e-05 -9.82954e-06 -2.03441e-05
2.40769e-05 2.29347e-05 1.82096e-06
-2.51109e-05 6.51006e-05 6.29656e-06
6.3181e-05 0.000128918 0.000107432
5.4844e-05 0.000119084 6.72096e-05
-7.73044e-06 -3.55076e-06 -2.18743e-05
-1.13575e-05 6.73535e-05 2.15607e-05
-2.2928e-05 1.54386e-06 -3.31844e-05
-4.59223e-06 3.59172e-05 -0.00010312
5.78854e-08 -2.00788e-05 -4.13701e-05
-3.65291e-06 -2.72087e-06 4.00272e-05
1.58445e-06 3.36324e-05 -0.000138045
-1.86574e-05 2.23518e-05 7.99659e-06
-5.05157e-05 3.86374e-05 -5.78106e-05
-1.66747e-05 1.70835e-05 4.03795e-05
5.33947e-05 3.36242e-05 5.00933e-06
0.000229471 -5.07195e-06 6.21728e-05
2.49228e-05 -7.08707e-06 -3.1777e-05
-1.17477e-05 -6.89049e-06 -1.0175e-05
0.000290382 0.000178901 7.68688e-05
6.04409e-05 -0.000259401 0.000246258
-2.45392e-05 -0.000167959 -0.000122464
-8.82134e-05 4.98694e-05 8.33627e-05
4.93447e-05 -2.48784e-05 4.15166e-05
0.000101211 -8.12242e-05 9.3305e-05
-1.27433e-05 6.9143e-05 3.92873e-05
-5.31727e-06 0.000249637 -0.000229242
4.39666e-05 -2.79092e-05 6.86014e-05
-4.76802e-05 -3.10606e-05 4.60901e-05
1.2532e-06 1.28962e-07 7.4812e-07
7.37744e-06 -4.07604e-06 -4.66067e-06
-4.16082e-05 7.1547e-05 -5.55158e-05
-7.10358e-05 9.17472e-06 -4.68378e-05
1.91034e-05 -1.90174e-05 7.94945e-06
-2.74864e-05 3.89987e-06 -1.02583e-05
-9.73783e-08 2.16217e-05 2.93203e-06
-7.86738e-05 -0.000130604 4.55062e-05
0.000154245 -0.000188178 7.60906e-05
0.00018213 -0.000114395 -0.00021943
-3.72727e-05 5.14625e-05 -6.11321e-06
-0.000141954 -6.33236e-05 2.56284e-05
-4.2338e-05 1.18064e-05 7.27112e-05
-4.35336e-05 -9.13513e-05 -0.000130507
4.9978e-05 -2.63259e-05 5.70176e-05
-3.30602e-05 7.52353e-05 6.75251e-05
7.76033e-05 7.16108e-05 -0.000110501
-0.000100325 -3.58962e-05 -0.000120855
-3.10474e-05 2.61218e-05 -5.19308e-05
2.06865e-05 -4.69612e-05 -0.000294974
3.73028e-05 6.87209e-05 -7.42615e-06
8.54459e-06 3.39472e-07 -0.000107165
8.63398e-05 -8.34305e-05 -8.63151e-05
-0.000426978 -6.37738e-05 -5.96e-05
-0.000197105 -4.33935e-05 -5.69655e-05
-1.26085e-05 5.05865e-05 1.25007e-05
0.000522165 -6.37523e-05 -0.000465133
-3.43679e-05 8.72454e-05 5.16689e-05
-8.12191e-05 -5.08598e-05 9.9104e-05
4.64414e-07 -1.38042e-06 2.12182e-07
-2.23506e-05 -1.8663e-05 1.74793e-05
7.03077e-05 3.52117e-05 8.47722e-05
-5.06311e-05 6.73497e-06 2.24658e-05
2.98678e-05 7.84578e-05 4.44181e-05
-5.76798e-05 2.31834e-06 1.3008e-05
-1.11056e-05 1.9465e-05 -6.49251e-05
4.66356e-05 2.9822e-05 0.000313519
2.82185e-05 0.000563446 0.000377358
-0.000257197 -0.0003744 -0.000495434
0.000545422 -0.000258107 0.000103561
-0.000130159 0.000154861 0.000103791
-4.61266e-06 7.40498e-08 -3.42303e-06
0.000215452 -6.20565e-05 -7.32722e-05
-0.000548538 0.000828179 0.000263516
0.000312496 1.81374e-05 -0.00035175
0.000119903 6.01776e-05 0.000136271
-0.000116151 -0.000558596 -0.000381227
5.44e-05 -2.67114e-05 2.07397e-05
2.27945e-05 9.27392e-07 -3.40198e-05
0.000129638 -3.91813e-05 6.61283e-05
-5.51271e-06 -2.71726e-06 1.07856e-05
0.000250519 -6.15446e-05 0.000126924
-0.000374713 0.000142095 -7.18558e-05
3.46252e-05 1.64027e-05 0.000138793
-7.7205e-05 6.99169e-05 0.000203932
0.000397386 -0.00017817 -0.000535826
-0.000102511 -7.59133e-05 3.76003e-05
-0.000288703 -0.000376003 -0.000159385
0.000118613 1.96262e-06 0.000189287
2.21331e-05 2.78984e-05 -2.92235e-05
-9.67273e-06 -3.46486e-05 2.19766e-05
-2.76482e-05 4.70263e-05 3.48321e-05
-5.76507e-05 2.13615e-05 3.10667e-05
0.000123842 -8.75776e-06 0.000199779
-0.000215492 0.000109377 -0.000175213
-2.78051e-05 -0.000116374 0.000483284
-0.000308306 -0.000266286 -0.000341863
-0.000348248 -0.000214531 0.000352792
6.9808e-06 2.06856e-05 -4.77032e-06
0.000145876 7.78396e-05 0.000102174
5.98046e-06 -2.61277e-05 2.70765e-05
7.84158e-06 1.90888e-05 -1.68967e-05
-1.22874e-05 9.36105e-06 1.44423e-05
-1.09908e-05 9.07129e-06 0.000157929
-1.53105e-06 -4.24849e-05 -1.93602e-05
9.83033e-07 -3.78773e-05 2.21432e-05
-2.45776e-06 4.9244e-05 4.00612e-05
1.14877e-05 -2.50519e-05 1.27461e-05
-1.57856e-05 -1.74799e-05 3.51926e-05
9.34946e-07 3.0276e-06 1.54552e-05
-3.23892e-05 -6.7932e-05 -5.26912e-05
-1.5223e-05 -1.00894e-05 -1.71475e-07
2.67486e-05 9.69732e-06 -8.80364e-05
-4.50888e-06 -4.71536e-06 -1.87741e-06
-1.20458e-05 1.35932e-05 9.4289e-06
1.20203e-05 -2.60393e-06 6.04929e-06
2.61316e-06 1.46677e-05 -3.27934e-06
-2.148e-05 8.02249e-05 0.000105224
-8.94326e-06 1.77041e-06 1.69379e-06
-1.62162e-05 6.72369e-06 -1.74832e-06
-1.47833e-05 2.63203e-05 2.78666e-05
9.47547e-06 -9.00986e-06 6.59225e-06
5.81518e-07 -1.05478e-05 1.09189e-05
-1.05116e-05 -1.06954e-05 8.8249e-06
1.21989e-06 1.29981e-06 -1.77894e-06
-2.59511e-05 -3.38031e-05 1.95229e-05
-1.20351e-05 -2.02572e-05 -1.6221e-05
-9.49183e-05 2.43866e-05 -8.37801e-05
1.38658e-05 -9.87597e-07 1.27792e-05
1.50035e-05 -3.63443e-05 -3.3598e-05
-7.44815e-05 6.71055e-06 -3.15436e-05
-9.33912e-06 -1.48124e-05 3.34712e-05
2.36448e-05 1.36728e-05 1.8774e-06
2.05861e-05 -0.000424322 -0.000951499
-2.64926e-05 -5.11218e-06 -2.25665e-05
-2.14461e-05 -3.66767e-06 -3.6164e-06
-4.22215e-05 1.60788e-05 -8.78677e-05
-0.000294658 0.000274607 0.000494925
1.6235e-07 1.17653e-05 9.98189e-06
6.5667e-06 4.37189e-06 -6.59314e-06
0.000134084 -0.000201112 -0.000100049
9.79696e-06 -4.27599e-05 -1.49157e-05
-2.87537e-05 -2.63009e-08 -0.000276113
-0.000164716 -2.68862e-05 -0.0001224
-2.44528e-05 -3.68591e-05 -6.80413e-06
4.88176e-05 3.81632e-05 -0.000137144
0.000121409 -5.41192e-06 -0.000152609
-0.00078364 -0.00171655 0.000413265
0.000223477 -2.71362e-06 0.000125853
1.23495e-05 -0.000709962 -0.000316118
-3.07538e-05 0.000159816 -0.000940237
-1.8765e-05 1.39938e-05 -7.73216e-06
3.57932e-05 4.14811e-06 -4.57179e-05
-1.96188e-05 -2.26543e-06 -7.01676e-06
8.44473e-06 6.16418e-06 7.46227e-06
-1.21431e-06 -9.21019e-06 2.63296e-06
-4.13149e-06 -5.88813e-06 1.03782e-05
7.09198e-06 1.70816e-05 1.721e-06
0.000108264 -4.68747e-06 -7.07806e-05
0.000132536 0.000121089 0.000112482
3.88732e-05 3.91088e-05 6.98643e-06
-3.16035e-06 -0.000124469 -0.000166068
5.6658e-05 3.79421e-05 4.29767e-05
5.41716e-05 0.000165249 -0.000397621
1.28266e-05 -2.25501e-05 -6.89034e-05
-6.50955e-05 -2.09885e-05 0.00010086
-2.38397e-05 0.000210755 8.70088e-05
1.94592e-05 -3.20955e-06 -6.60649e-05
0.000203326 -1.57789e-05 4.12663e-05
1.58188e-05 -2.36371e-05 -9.67782e-06
-2.57448e-05 -2.37876e-05 -7.59996e-05
2.6398e-06 8.6817e-05 -4.91549e-05
-5.46375e-05 3.28755e-05 -1.0308e-05
3.52608e-05 -4.91448e-05 -8.34554e-05
4.64428e-06 5.67352e-06 1.91671e-06
-0.000112161 7.57235e-05 -0.000117147
8.67489e-06 9.65451e-06 2.89021e-06
1.41672e-05 1.93235e-05 9.89893e-06
-1.74794e-05 -4.54991e-05 1.65978e-05
-5.48126e-05 2.5929e-05 3.57368e-05
-0.000178562 0.000182144 -0.000144579
-1.553e-05 -3.12566e-05 2.65599e-05
9.06075e-06 -3.51792e-05 -4.44501e-06
-0.000217466 -1.65794e-05 7.55094e-05
4.48007e-05 -0.000211405 -0.000257051
5.77638e-05 0.000260949 -0.000100278
3.28412e-05 9.25711e-06 2.35823e-05
4.058e-05 -8.56036e-05 0.000113484
3.29921e-07 -1.26737e-06 -1.76488e-06
5.33977e-05 2.11704e-05 6.56711e-05
-1.63275e-05 -1.0324e-05 4.55926e-05
-1.44859e-05 4.3946e-05 -2.18686e-05
-5.88414e-05 0.000100301 -0.000148165
-1.25278e-05 -5.28042e-06 1.04532e-06
2.47804e-05 -3.60611e-05 2.13142e-05
3.3996e-05 -7.79997e-06 -1.32793e-06
-5.85582e-06 6.68235e-05 -2.55664e-05
-1.538e-06 4.51378e-08 -4.66608e-06
0.00014975 3.3036e-05 -2.98255e-05
2.96968e-05 6.58555e-05 -2.41405e-05
2.4791e-05 -1.2973e-05 -2.33499e-05
8.34196e-05 -6.16942e-05 -0.000132261
5.65442e-05 4.35875e-05 -8.24459e-05
1.95447e-06 6.90712e-05 7.17174e-05
2.91026e-05 -8.92338e-06 2.49386e-05
0.000106723 -0.000117501 -2.86119e-05
0.000151466 1.98504e-05 -0.000315386
-7.3563e-05 -4.93886e-05 2.89814e-05
6.54036e-06 1.62628e-05 2.47826e-05
6.31923e-05 5.82214e-05 4.67043e-05
0.000104723 -5.56255e-05 0.000306665
-9.25537e-05 -0.000433444 0.00124202
-3.90742e-05 1.16897e-06 -3.43975e-05
-2.45302e-05 7.13754e-05 2.91536e-05
-4.00163e-06 -3.5895e-05 -7.14142e-06
1.02625e-06 -9.11294e-06 8.14413e-06
3.56174e-05 1.62108e-05 0.000351632
2.89328e-06 2.10995e-06 2.6936e-06
0.000410128 -0.000272513 0.000162165
7.57226e-05 -0.000138516 -3.33273e-05
-0.000367756 0.000155986 0.00034285
2.0408e-05 -0.000227814 0.000105757
-5.23141e-05 8.63886e-06 -2.54159e-05
2.84164e-05 -2.38273e-06 2.86129e-05
-7.34076e-06 1.42187e-06 5.96914e-06
-2.30567e-05 -2.06013e-05 4.47545e-05
-0.000256543 0.000210876 6.507e-06
-0.000268899 -1.92326e-05 0.000300283
-1.1949e-05 -7.76628e-05 -3.28348e-05
-3.27751e-05 4.86961e-05 0.000107848
-4.85148e-05 8.01548e-05 8.36605e-05
0.000212534 -0.000184495 -0.000156097
1.92094e-05 -3.36892e-05 -4.71048e-05
-0.000172577 4.05021e-05 -2.75038e-05
-2.81833e-05 -6.04383e-05 -3.01809e-05
-0.000138253 -0.000383279 -0.000216859
8.1214e-05 -1.9047e-05 -0.000393014
-0.000241659 -0.000113313 -0.000237224
-1.35716e-05 -6.25939e-05 5.27107e-05
-7.17564e-05 5.6036e-05 -0.000128927
-1.0058e-05 -7.22841e-05 0.000113244
4.11945e-06 -7.88056e-06 3.9571e-05
0.000203923 -1.78353e-05 -2.30141e-06
-5.11045e-05 -2.55205e-06 -6.15783e-05
3.45718e-05 3.69601e-05 7.98987e-05
-6.19169e-06 -7.46742e-06 9.48635e-06
-1.25495e-05 1.2609e-05 9.89085e-06
1.33256e-05 3.4422e-05 2.18053e-05
1.81121e-05 -2.7294e-05 3.03608e-05
-7.28969e-06 1.99359e-06 3.90416e-06
1.10342e-05 -1.64222e-06 6.67006e-06
-9.00496e-05 -0.000440578 0.000438709
0.000157435 0.00010196 -0.000831509
0.000141615 -0.00028617 1.24746e-05
-3.093e-05 4.04814e-05 5.49819e-05
6.87445e-05 3.84828e-06 1.46827e-05
-3.56503e-05 4.70617e-05 1.72244e-05
0.000191203 7.72248e-05 0.000510722
0.000111516 0.000158712 -0.000454604
-9.18937e-06 3.06671e-05 7.56477e-05
-1.399e-05 -2.35529e-06 1.98102e-05
-6.6758e-06 -4.3165e-06 9.60473e-05
2.97708e-05 7.99713e-06 -7.53245e-06
-1.17576e-05 1.83848e-05 -1.51577e-05
-1.37191e-05 -8.47337e-06 1.97584e-05
-1.19144e-05 1.03442e-05 -1.92864e-06
9.4647e-06 -1.23474e-05 4.12526e-05
-3.09011e-05 2.56673e-06 4.93202e-05
1.38925e-05 -1.38836e-06 2.7427e-05
3.43448e-06 -2.82858e-05 8.77161e-06
-1.12862e-05 7.4046e-06 1.26973e-05
-0.000138061 6.81327e-05 -0.000245786
-1.50104e-07 -1.30461e-07 1.24251e-07
-7.38132e-07 -3.65745e-07 -3.78245e-07
1.11028e-05 4.47061e-05 0.000112259
-6.83422e-05 -0.000600645 0.000130222
5.29681e-05 -8.2335e-05 7.51517e-05
-0.00043075 -0.000250207 -0.000352656
-4.50761e-05 -0.000135361 7.67596e-05
-5.20201e-06 -1.68694e-05 -0.000125053
-9.82968e-06 -5.07263e-06 3.51518e-05
0.000117532 0.000117294 3.86597e-05
7.71546e-06 3.36214e-06 4.03544e-05
-2.69355e-05 -2.27221e-06 -2.46323e-05
4.03706e-05 -0.000264187 -8.67377e-05
0.000210062 0.000133391 -4.00296e-06
4.9089e-06 -0.000124954 -0.00011514
-0.000156234 0.000653171 0.000161324
-0.000434067 -0.000312594 -0.000533058
0.000589612 -0.000200546 0.000579496
-5.51382e-05 0.000164405 -8.71675e-05
9.57612e-07 -4.03944e-07 -9.81752e-07
2.12307e-05 2.08901e-05 1.99242e-05
-1.90985e-05 1.37753e-05 -1.356e-05
-8.47628e-06 6.45066e-05 2.69814e-05
-4.23764e-06 1.37452e-05 -5.49846e-06
0.000127498 -6.75614e-05 9.57106e-05
1.87847e-05 2.56647e-05 3.51183e-05
4.31644e-06 -2.48476e-05 1.46146e-05
-0.000535829 -8.84712e-05 -2.52404e-05
-4.62633e-05 -8.49957e-06 -2.24151e-05
6.39455e-05 2.83634e-05 0.000258464
4.67586e-05 -3.87238e-06 0.000208072
-8.43782e-07 -7.09894e-06 -9.21437e-07
5.13413e-05 -5.72985e-06 -4.57608e-05
4.16634e-06 9.69218e-06 -8.03207e-06
2.98843e-05 3.88309e-05 3.39851e-06
1.1553e-06 4.69682e-06 2.01164e-06
-8.99697e-06 7.83689e-06 -5.05955e-06
3.02882e-05 -8.94749e-06 1.39776e-05
6.15656e-06 -1.65249e-06 7.01112e-07
-5.24205e-05 0.000261189 5.15562e-05
1.10783e-05 -4.98587e-07 1.35261e-05
1.27244e-05 -1.74828e-06 -1.88219e-05
9.10051e-05 -0.000243093 -9.37438e-05
-4.63547e-06 1.95865e-05 -3.96766e-05
-3.48953e-05 4.67789e-05 -0.00020442
4.7012e-05 6.15751e-05 -5.87024e-05
-6.185e-05 1.21101e-05 -5.62828e-05
1.66039e-05 -7.32753e-05 -9.99827e-05
2.73639e-05 5.51838e-06 -1.39286e-05
1.62082e-05 -2.6252e-05 -2.52661e-05
-3.49257e-05 0.000130674 0.000127777
-0.000213658 6.30947e-05 -0.000252236
0.000117635 0.000181517 0.000207892
-0.000240567 -6.13866e-05 0.00021182
1.66573e-07 -3.8618e-05 -7.83789e-06
2.76485e-05 1.11561e-05 -6.66791e-06
-1.55543e-05 -1.93264e-06 1.35617e-05
7.55887e-06 -2.30361e-06 3.80109e-06
7.66353e-06 4.45223e-05 -0.000101422
5.98083e-05 -4.65453e-05 -4.77667e-05
-2.40557e-05 -2.95097e-05 -1.03606e-06
-2.17707e-05 2.33799e-05 -5.74051e-06
2.69224e-06 2.27413e-05 -3.58627e-06
6.82155e-06 -1.3781e-05 1.92816e-07
-1.3152e-05 -2.00849e-07 -1.18595e-05
-2.39109e-05 1.44322e-05 2.86681e-05
5.95109e-08 3.07004e-06 -3.02042e-05
-0.000200776 -1.73622e-05 0.000823061
-7.28182e-05 -4.8612e-06 6.9623e-05
-8.94778e-05 -1.70631e-05 9.98381e-05
-1.3776e-05 4.65993e-06 2.37483e-06
7.83351e-05 -8.09498e-05 0.000132629
-4.56799e-06 2.25564e-05 -2.08882e-05
2.41524e-05 3.17679e-06 1.70102e-05
1.32616e-05 -2.88232e-05 6.63822e-06
5.48743e-05 3.55328e-05 0.000108587
1.07497e-05 -1.82918e-05 -7.39679e-06
-8.98761e-06 1.68466e-05 -1.69924e-05
5.62829e-05 9.85348e-05 6.40242e-05
0.000186897 3.97493e-05 -0.000112105
-0.00018757 -5.77895e-05 -0.000179227
3.32998e-06 -2.25886e-05 -6.10159e-06
-2.14994e-07 4.57005e-06 -1.75164e-06
-2.14349e-06 -2.40945e-06 -1.2759e-06
2.2325e-05 -2.31064e-05 -9.41041e-06
1.78791e-05 8.94667e-05 -2.72113e-05
-1.31891e-05 4.02378e-05 -1.12423e-05
1.64586e-05 -1.36692e-06 5.22494e-06
9.283e-05 1.73124e-05 8.38043e-05
1.74112e-05 -2.55026e-05 -3.18964e-05
4.6438e-05 6.62506e-05 9.31686e-06
-3.03471e-06 -2.10007e-05 0.000146003
-4.86063e-05 -1.43425e-05 0.000102408
-2.94209e-05 -2.09481e-05 -2.17202e-05
2.03845e-05 3.50392e-05 -3.16423e-05
1.78636e-05 4.42859e-05 -5.61995e-05
4.1914e-07 -5.76529e-06 -2.64953e-05
-0.000138855 0.000155154 0.000224091
-3.37416e-05 2.73483e-05 -2.01106e-05
3.73203e-05 5.59695e-05 -0.000353734
-6.40796e-05 3.34103e-05 -0.00028373
-6.09659e-06 1.9777e-05 4.10978e-06
-7.63739e-05 0.000276199 4.70922e-05
-4.08427e-06 8.51893e-05 9.18376e-05
3.4648e-07 5.64135e-05 2.31247e-06
6.50225e-05 5.15494e-06 6.57266e-07
7.78032e-05 5.10888e-05 3.39432e-05
1.37965e-05 -3.57554e-06 -1.82677e-06
6.01367e-05 5.38351e-05 7.15932e-05
-0.000112125 0.000191762 -0.000129999
5.47813e-05 -0.000614696 -0.000546501
1.08328e-05 7.9439e-06 -3.06107e-05
-4.68444e-05 -0.000104733 -7.64246e-05
0.000224945 -0.000251408 -0.000736324
-3.57127e-05 8.18168e-05 2.18622e-05
3.3121e-05 -4.38277e-05 7.61834e-05
8.2453e-06 -6.8782e-05 5.10907e-05
-3.01644e-05 -3.77579e-07 2.57571e-05
-1.22268e-05 9.81778e-06 -7.28158e-06
2.33673e-09 -2.26041e-09 1.22672e-08
-3.90839e-05 -7.59781e-05 -3.88217e-05
7.17031e-05 3.40585e-05 -3.9032e-05
5.45985e-06 2.87416e-05 5.69143e-05
-1.23074e-05 2.03356e-06 5.14675e-08
7.9138e-06 -1.97521e-06 -9.4504e-07
1.24487e-05 -1.61919e-05 9.53515e-06
6.73257e-06 3.8038e-06 -9.60825e-06
6.37431e-06 0.00010133 6.69042e-06
-1.60395e-05 1.74071e-05 1.58711e-05
0.000235113 -3.906e-05 6.4012e-05
4.55323e-06 4.2234e-05 -0.000236133
-1.89522e-05 1.27142e-05 6.87405e-05
-3.18416e-06 8.35582e-06 5.77068e-06
3.21542e-05 1.84909e-05 -4.43941e-05
3.16551e-06 -4.40951e-06 8.57332e-07
7.1561e-06 1.82707e-05 -6.11622e-06
3.72278e-05 -0.00013338 0.000130553
7.88917e-05 3.11317e-05 0.000102703
-4.92841e-06 3.52601e-06 -6.81739e-06
2.69819e-05 -3.48887e-05 4.47764e-05