<?xml version="1.0"?>
<VTKFile type="UnstructuredGrid" version="0.1" byte_order="LittleEndian" compressor="vtkZLibDataCompressor">
 <UnstructuredGrid GhostLevel="0">
  <Piece NumberOfPoints="8" NumberOfCells="8">
   <PointData>
    <DataArray type="Float64" Name="radius"/>
0.1
0.1
0.1
0.1
0.1
0.1
0.1
0.1
    <DataArray type="Float64" Name="mass"/>
10.472
10.472
10.472
10.472
10.472
10.472
10.472
10.472
    <DataArray type="Float64" Name="particleIndex"/>
0
1
2
3
4
5
6
7
    <DataArray type="Float64" Name="clusterIndex"/>
0
1
2
3
4
5
6
7
    <DataArray type="Float64" Name="v" NumberOfComponents="3"/>
-0.000438191 0.000841358 0
-0.00147859 0.000796927 0
5.14994e-05 0.000412501 0
0.000533346 -0.000445422 0
-0.00585694 -0.000865475 0
0.000648666 -0.00304927 0
0.000683836 -0.00065085 0
-0.00258268 -0.000350104 0
    <DataArray type="Float64" Name="w" NumberOfComponents="3"/>
0 0 -0.00196658
0 0 -0.0297829
0 0 0.00515557
0 0 0.013876
0 0 0.0888256
0 0 0.0664253
0 0 0.0990689
0 0 0.000878698
    <DataArray type="Float64" Name="FParticle" NumberOfComponents="3"/>
30.2159 -70.5056 0
39.051 -90.8749 0
-239.584 -218.47 0
-155.183 38.9947 0
161.047 146.329 0
-16.8898 119.317 0
97.9393 39.4572 0
83.4037 35.7528 0
    <DataArray type="Float64" Name="FGrav" NumberOfComponents="3"/>
-102.73 0 0
-102.73 0 0
-102.73 0 0
-102.73 0 0
-102.73 0 0
-102.73 0 0
-102.73 0 0
-102.73 0 0
    <DataArray type="Float64" Name="MParticle" NumberOfComponents="3"/>
0 0 2.84885
0 0 9.37112
0 0 17.5213
0 0 25.0397
0 0 7.75927
0 0 -2.89644
0 0 -4.52607
0 0 3.37014
    <DataArray type="Float64" Name="FWall" NumberOfComponents="3"/>
41.7042 49.7991 0
50.2709 59.9828 0
366.153 128.557 0
225.617 -114.758 0
47.2907 -294.383 0
47.178 -32.7802 0
0 0 0
68.7405 -47.8045 0
    <DataArray type="Float64" Name="MWall" NumberOfComponents="3"/>
0 0 0
0 0 0
0 0 15.3959
0 0 9.40084
0 0 12.2813
0 0 -2.13358
0 0 0
0 0 -3.10961
    <DataArray type="Float64" Name="FHydro" NumberOfComponents="3"/>
0 0 0
0 0 0
0 0 0
0 0 0
0 0 0
0 0 0
0 0 0
0 0 0
    <DataArray type="Float64" Name="FSpringP" NumberOfComponents="3"/>
-20.1446 -20.1442 0
-25.9498 -26.0003 0
-75.2523 26.4028 0
-13.8745 17.4243 0
179.616 -81.2219 0
-68.1306 68.1533 0
-0.0970778 39.2145 0
23.8325 -23.8285 0
    <DataArray type="Float64" Name="FSpringW" NumberOfComponents="3"/>
0 0 0
0 0 0
94.8341 -108.528 0
-8.45202 -93.6277 0
-102.47 -67.6968 0
17.8108 11.7469 0
0 0 0
25.9658 17.1099 0
    <DataArray type="Float64" Name="MRolling" NumberOfComponents="3"/>
0 0 0.943001
0 0 1.10608
0 0 10.4557
0 0 5.07691
0 0 4.46388
0 0 -2.27138
0 0 -0.565759
0 0 1.97607
   </PointData>
   <CellData>
   </CellData>
   <Points>
    <DataArray type="Float64" Name="Points" NumberOfComponents="3"/>
4.48194 2.54975 0.7
4.34057 2.69112 0.7
4.19919 2.83236 0.7
4.19907 3.03203 0.7
4.25159 3.22466 0.7
4.39294 3.36591 0.7
4.37236 2.93229 0.7
4.53429 3.50729 0.7
   </Points>
   <Cells>
    <DataArray type="Int64" Name="connectivity" format="ascii">
0
1
2
3
4
5
6
7
    </DataArray>
    <DataArray type="Int64" Name="offsets" format="ascii">
1
2
3
4
5
6
7
8
    </DataArray>
    <DataArray type="Int64" Name="types" format="ascii">
1
1
1
1
1
1
1
1
    </DataArray>
   </Cells>
  </Piece>
 </UnstructuredGrid>
</VTKFile>