<?xml version="1.0"?>
<VTKFile type="UnstructuredGrid" version="0.1" byte_order="LittleEndian" compressor="vtkZLibDataCompressor">
 <UnstructuredGrid GhostLevel="0">
  <Piece NumberOfPoints="6" NumberOfCells="6">
   <PointData>
    <DataArray type="Float64" Name="Elongation" NumberOfComponents="3"/>
9.41558e-10 -8.93707e-06 -6.3912e-06
-7.7423e-06 4.46779e-06 -6.39252e-06
7.73317e-06 4.46904e-06 -6.38732e-06
1.0773e-09 1.09812e-05 0
9.51187e-06 -5.49378e-06 0
-9.51362e-06 -5.48743e-06 0
    <DataArray type="Float64" Name="norm"/>
1.09872e-05
1.09895e-05
1.09805e-05
1.09812e-05
1.09844e-05
1.09827e-05
   </PointData>
   <CellData>
   </CellData>
   <Points>
    <DataArray type="Float64" Name="Points" NumberOfComponents="3"/>
2 2.05816 0.218758
2.05037 1.97092 0.218758
1.94963 1.97092 0.218758
2 2.11632 0.0999315
2.10074 1.94184 0.0999315
1.89927 1.94184 0.0999315
   </Points>
   <Cells>
    <DataArray type="Int64" Name="connectivity" format="ascii">
0
1
2
3
4
5
    </DataArray>
    <DataArray type="Int64" Name="offsets" format="ascii">
1
2
3
4
5
6
    </DataArray>
    <DataArray type="Int64" Name="types" format="ascii">
1
1
1
1
1
1
    </DataArray>
   </Cells>
  </Piece>
 </UnstructuredGrid>
</VTKFile>