<?xml version="1.0"?>
<VTKFile type="UnstructuredGrid" version="0.1" byte_order="LittleEndian" compressor="vtkZLibDataCompressor">
 <UnstructuredGrid GhostLevel="0">
  <Piece NumberOfPoints="6" NumberOfCells="6">
   <PointData>
    <DataArray type="Float64" Name="Elongation" NumberOfComponents="3"/>
-8.27556e-08 -1.97167e-05 -1.44474e-05
-2.12003e-06 2.75721e-06 -2.34778e-06
2.39752e-06 2.75389e-06 -2.5234e-06
-4.82384e-08 1.33191e-05 0
1.5338e-05 -6.54166e-06 0
-1.52651e-05 -6.74527e-06 0
    <DataArray type="Float64" Name="norm"/>
2.44435e-05
4.19629e-06
4.43842e-06
1.33192e-05
1.66747e-05
1.6689e-05
   </PointData>
   <CellData>
   </CellData>
   <Points>
    <DataArray type="Float64" Name="Points" NumberOfComponents="3"/>
1.99999 2.05815 0.218076
2.05142 1.96992 0.218078
1.94857 1.96993 0.218078
1.99999 2.11724 0.0999292
2.10284 1.94079 0.0999327
1.89715 1.9408 0.0999325
   </Points>
   <Cells>
    <DataArray type="Int64" Name="connectivity" format="ascii">
0
1
2
3
4
5
    </DataArray>
    <DataArray type="Int64" Name="offsets" format="ascii">
1
2
3
4
5
6
    </DataArray>
    <DataArray type="Int64" Name="types" format="ascii">
1
1
1
1
1
1
    </DataArray>
   </Cells>
  </Piece>
 </UnstructuredGrid>
</VTKFile>