<?xml version="1.0"?>
<VTKFile type="UnstructuredGrid" version="0.1" byte_order="LittleEndian" compressor="vtkZLibDataCompressor">
 <UnstructuredGrid GhostLevel="0">
  <Piece NumberOfPoints="6" NumberOfCells="6">
   <PointData>
    <DataArray type="Float64" Name="Elongation" NumberOfComponents="3"/>
-5.76156e-08 -1.97084e-05 -1.44326e-05
-5.51435e-08 9.44926e-08 -6.93195e-08
1.17852e-07 1.7261e-07 -1.37519e-07
-3.53008e-08 1.33267e-05 0
1.52755e-05 -6.53695e-06 0
-1.52368e-05 -6.78074e-06 0
    <DataArray type="Float64" Name="norm"/>
2.4428e-05
1.29518e-07
2.5019e-07
1.33268e-05
1.66155e-05
1.66775e-05
   </PointData>
   <CellData>
   </CellData>
   <Points>
    <DataArray type="Float64" Name="Points" NumberOfComponents="3"/>
1.99999 2.05832 0.218093
2.05135 1.97004 0.218095
1.94864 1.97005 0.218095
1.99999 2.11739 0.0999292
2.1027 1.94084 0.0999327
1.89729 1.94084 0.0999325
   </Points>
   <Cells>
    <DataArray type="Int64" Name="connectivity" format="ascii">
0
1
2
3
4
5
    </DataArray>
    <DataArray type="Int64" Name="offsets" format="ascii">
1
2
3
4
5
6
    </DataArray>
    <DataArray type="Int64" Name="types" format="ascii">
1
1
1
1
1
1
    </DataArray>
   </Cells>
  </Piece>
 </UnstructuredGrid>
</VTKFile>