<?xml version="1.0"?>
<VTKFile type="UnstructuredGrid" version="0.1" byte_order="LittleEndian" compressor="vtkZLibDataCompressor">
 <UnstructuredGrid GhostLevel="0">
  <Piece NumberOfPoints="6" NumberOfCells="6">
   <PointData>
    <DataArray type="Float64" Name="Elongation" NumberOfComponents="3"/>
-3.20611e-06 -1.8527e-05 -1.35354e-05
-9.89688e-07 1.2929e-06 -1.09859e-06
-3.64938e-08 -8.49312e-08 5.41233e-08
-1.58278e-06 1.38474e-05 0
1.59937e-05 -7.34528e-06 0
-1.45559e-05 -6.32255e-06 0
    <DataArray type="Float64" Name="norm"/>
2.31676e-05
1.96417e-06
1.07119e-07
1.39375e-05
1.75998e-05
1.58698e-05
   </PointData>
   <CellData>
   </CellData>
   <Points>
    <DataArray type="Float64" Name="Points" NumberOfComponents="3"/>
2 2.05899 0.21816
2.05109 1.97052 0.218161
1.94892 1.97052 0.218162
2 2.11797 0.0999293
2.10217 1.94102 0.0999322
1.89784 1.94102 0.0999334
   </Points>
   <Cells>
    <DataArray type="Int64" Name="connectivity" format="ascii">
0
1
2
3
4
5
    </DataArray>
    <DataArray type="Int64" Name="offsets" format="ascii">
1
2
3
4
5
6
    </DataArray>
    <DataArray type="Int64" Name="types" format="ascii">
1
1
1
1
1
1
    </DataArray>
   </Cells>
  </Piece>
 </UnstructuredGrid>
</VTKFile>