<?xml version="1.0"?>
<VTKFile type="UnstructuredGrid" version="0.1" byte_order="LittleEndian" compressor="vtkZLibDataCompressor">
 <UnstructuredGrid GhostLevel="0">
  <Piece NumberOfPoints="6" NumberOfCells="6">
   <PointData>
    <DataArray type="Float64" Name="Elongation" NumberOfComponents="3"/>
-6.22545e-08 -1.97524e-05 -1.4441e-05
-1.08185e-06 1.53e-06 -1.24332e-06
1.2489e-06 1.60149e-06 -1.37524e-06
-2.84308e-08 1.3412e-05 0
1.52404e-05 -6.60152e-06 0
-1.52199e-05 -6.83309e-06 0
    <DataArray type="Float64" Name="norm"/>
2.44684e-05
2.24881e-06
2.45271e-06
1.34121e-05
1.66087e-05
1.66835e-05
   </PointData>
   <CellData>
   </CellData>
   <Points>
    <DataArray type="Float64" Name="Points" NumberOfComponents="3"/>
2 2.05879 0.21814
2.05116 1.97038 0.218141
1.94884 1.97038 0.218141
2 2.1178 0.0999291
2.10233 1.94097 0.0999329
1.89767 1.94097 0.0999326
   </Points>
   <Cells>
    <DataArray type="Int64" Name="connectivity" format="ascii">
0
1
2
3
4
5
    </DataArray>
    <DataArray type="Int64" Name="offsets" format="ascii">
1
2
3
4
5
6
    </DataArray>
    <DataArray type="Int64" Name="types" format="ascii">
1
1
1
1
1
1
    </DataArray>
   </Cells>
  </Piece>
 </UnstructuredGrid>
</VTKFile>