<?xml version="1.0"?>
<VTKFile type="UnstructuredGrid" version="0.1" byte_order="LittleEndian" compressor="vtkZLibDataCompressor">
 <UnstructuredGrid GhostLevel="0">
  <Piece NumberOfPoints="6" NumberOfCells="6">
   <PointData>
    <DataArray type="Float64" Name="Elongation" NumberOfComponents="3"/>
-5.89803e-08 -1.97268e-05 -1.44267e-05
-7.63787e-07 1.11285e-06 -8.89597e-07
8.96673e-07 1.1953e-06 -1.00389e-06
-2.74508e-08 1.34057e-05 0
1.52365e-05 -6.58816e-06 0
-1.52213e-05 -6.82661e-06 0
    <DataArray type="Float64" Name="norm"/>
2.44393e-05
1.61654e-06
1.80015e-06
1.34057e-05
1.65999e-05
1.66821e-05
   </PointData>
   <CellData>
   </CellData>
   <Points>
    <DataArray type="Float64" Name="Points" NumberOfComponents="3"/>
2 2.0587 0.218131
2.0512 1.97031 0.218133
1.9488 1.97032 0.218133
2 2.11772 0.0999291
2.1024 1.94094 0.0999328
1.8976 1.94095 0.0999326
   </Points>
   <Cells>
    <DataArray type="Int64" Name="connectivity" format="ascii">
0
1
2
3
4
5
    </DataArray>
    <DataArray type="Int64" Name="offsets" format="ascii">
1
2
3
4
5
6
    </DataArray>
    <DataArray type="Int64" Name="types" format="ascii">
1
1
1
1
1
1
    </DataArray>
   </Cells>
  </Piece>
 </UnstructuredGrid>
</VTKFile>