<?xml version="1.0"?>
<VTKFile type="UnstructuredGrid" version="0.1" byte_order="LittleEndian" compressor="vtkZLibDataCompressor">
 <UnstructuredGrid GhostLevel="0">
  <Piece NumberOfPoints="6" NumberOfCells="6">
   <PointData>
    <DataArray type="Float64" Name="Elongation" NumberOfComponents="3"/>
-5.20459e-08 -1.97563e-05 -1.44546e-05
-6.95705e-09 2.55231e-08 -1.36924e-08
4.84706e-08 1.02193e-07 -6.79138e-08
-3.58528e-08 1.33533e-05 0
1.52258e-05 -6.54874e-06 0
-1.51851e-05 -6.78918e-06 0
    <DataArray type="Float64" Name="norm"/>
2.44796e-05
2.97878e-08
1.31928e-07
1.33534e-05
1.65744e-05
1.66337e-05
   </PointData>
   <CellData>
   </CellData>
   <Points>
    <DataArray type="Float64" Name="Points" NumberOfComponents="3"/>
2 2.05858 0.218119
2.05125 1.97023 0.218121
1.94875 1.97023 0.218121
2 2.11761 0.0999291
2.1025 1.94091 0.0999328
1.8975 1.94091 0.0999325
   </Points>
   <Cells>
    <DataArray type="Int64" Name="connectivity" format="ascii">
0
1
2
3
4
5
    </DataArray>
    <DataArray type="Int64" Name="offsets" format="ascii">
1
2
3
4
5
6
    </DataArray>
    <DataArray type="Int64" Name="types" format="ascii">
1
1
1
1
1
1
    </DataArray>
   </Cells>
  </Piece>
 </UnstructuredGrid>
</VTKFile>