<?xml version="1.0"?>
<VTKFile type="UnstructuredGrid" version="0.1" byte_order="LittleEndian" compressor="vtkZLibDataCompressor">
 <UnstructuredGrid GhostLevel="0">
  <Piece NumberOfPoints="6" NumberOfCells="6">
   <PointData>
    <DataArray type="Float64" Name="Elongation" NumberOfComponents="3"/>
-7.49053e-08 -1.96182e-05 -1.43842e-05
-7.06539e-07 1.00113e-06 -8.12011e-07
8.44347e-07 1.0692e-06 -9.24495e-07
-3.59177e-08 1.33709e-05 0
1.54116e-05 -6.59193e-06 0
-1.53854e-05 -6.76853e-06 0
    <DataArray type="Float64" Name="norm"/>
2.43266e-05
1.46997e-06
1.64645e-06
1.33709e-05
1.67622e-05
1.68084e-05
   </PointData>
   <CellData>
   </CellData>
   <Points>
    <DataArray type="Float64" Name="Points" NumberOfComponents="3"/>
1.99999 2.05797 0.218059
2.05149 1.9698 0.21806
1.9485 1.9698 0.21806
1.99999 2.11709 0.0999292
2.10298 1.94074 0.0999328
1.89701 1.94075 0.0999325
   </Points>
   <Cells>
    <DataArray type="Int64" Name="connectivity" format="ascii">
0
1
2
3
4
5
    </DataArray>
    <DataArray type="Int64" Name="offsets" format="ascii">
1
2
3
4
5
6
    </DataArray>
    <DataArray type="Int64" Name="types" format="ascii">
1
1
1
1
1
1
    </DataArray>
   </Cells>
  </Piece>
 </UnstructuredGrid>
</VTKFile>