<?xml version="1.0"?>
<VTKFile type="UnstructuredGrid" version="0.1" byte_order="LittleEndian" compressor="vtkZLibDataCompressor">
 <UnstructuredGrid GhostLevel="0">
  <Piece NumberOfPoints="6" NumberOfCells="6">
   <PointData>
    <DataArray type="Float64" Name="Elongation" NumberOfComponents="3"/>
-5.32275e-08 -1.97712e-05 -1.44623e-05
2.7995e-08 -2.42654e-08 2.65951e-08
1.14822e-08 5.00528e-08 -2.54885e-08
-3.61919e-08 1.33586e-05 0
1.52175e-05 -6.54839e-06 0
-1.51722e-05 -6.78962e-06 0
    <DataArray type="Float64" Name="norm"/>
2.44961e-05
4.56051e-08
5.73305e-08
1.33586e-05
1.65667e-05
1.66221e-05
   </PointData>
   <CellData>
   </CellData>
   <Points>
    <DataArray type="Float64" Name="Points" NumberOfComponents="3"/>
2 2.05864 0.218125
2.05122 1.97027 0.218127
1.94877 1.97027 0.218127
2 2.11767 0.0999291
2.10245 1.94092 0.0999328
1.89755 1.94093 0.0999325
   </Points>
   <Cells>
    <DataArray type="Int64" Name="connectivity" format="ascii">
0
1
2
3
4
5
    </DataArray>
    <DataArray type="Int64" Name="offsets" format="ascii">
1
2
3
4
5
6
    </DataArray>
    <DataArray type="Int64" Name="types" format="ascii">
1
1
1
1
1
1
    </DataArray>
   </Cells>
  </Piece>
 </UnstructuredGrid>
</VTKFile>