<?xml version="1.0"?>
<VTKFile type="UnstructuredGrid" version="0.1" byte_order="LittleEndian" compressor="vtkZLibDataCompressor">
 <UnstructuredGrid GhostLevel="0">
  <Piece NumberOfPoints="6" NumberOfCells="6">
   <PointData>
    <DataArray type="Float64" Name="Elongation" NumberOfComponents="3"/>
-9.15253e-08 -1.96651e-05 -1.44101e-05
-1.39915e-06 1.89574e-06 -1.57693e-06
1.63149e-06 2.00425e-06 -1.76419e-06
-4.37963e-08 1.33425e-05 0
1.54104e-05 -6.59706e-06 0
-1.53688e-05 -6.78289e-06 0
    <DataArray type="Float64" Name="norm"/>
2.43798e-05
2.83516e-06
3.12908e-06
1.33426e-05
1.67631e-05
1.67991e-05
   </PointData>
   <CellData>
   </CellData>
   <Points>
    <DataArray type="Float64" Name="Points" NumberOfComponents="3"/>
1.99999 2.05814 0.218075
2.05142 1.96991 0.218077
1.94857 1.96992 0.218077
1.99999 2.11723 0.0999292
2.10285 1.94079 0.0999328
1.89714 1.9408 0.0999326
   </Points>
   <Cells>
    <DataArray type="Int64" Name="connectivity" format="ascii">
0
1
2
3
4
5
    </DataArray>
    <DataArray type="Int64" Name="offsets" format="ascii">
1
2
3
4
5
6
    </DataArray>
    <DataArray type="Int64" Name="types" format="ascii">
1
1
1
1
1
1
    </DataArray>
   </Cells>
  </Piece>
 </UnstructuredGrid>
</VTKFile>