<?xml version="1.0"?>
<VTKFile type="UnstructuredGrid" version="0.1" byte_order="LittleEndian" compressor="vtkZLibDataCompressor">
 <UnstructuredGrid GhostLevel="0">
  <Piece NumberOfPoints="6" NumberOfCells="6">
   <PointData>
    <DataArray type="Float64" Name="Elongation" NumberOfComponents="3"/>
-7.75125e-08 -1.9637e-05 -1.43902e-05
-5.17159e-07 7.485e-07 -6.00125e-07
5.63137e-07 8.1065e-07 -6.51853e-07
-4.13445e-08 1.33731e-05 0
1.53633e-05 -6.58162e-06 0
-1.53347e-05 -6.78587e-06 0
    <DataArray type="Float64" Name="norm"/>
2.43453e-05
1.08989e-06
1.18287e-06
1.33731e-05
1.67138e-05
1.67691e-05
   </PointData>
   <CellData>
   </CellData>
   <Points>
    <DataArray type="Float64" Name="Points" NumberOfComponents="3"/>
1.99999 2.05813 0.218074
2.05142 1.96991 0.218076
1.94856 1.96991 0.218076
1.99999 2.11722 0.0999292
2.10285 1.94078 0.0999328
1.89713 1.94079 0.0999325
   </Points>
   <Cells>
    <DataArray type="Int64" Name="connectivity" format="ascii">
0
1
2
3
4
5
    </DataArray>
    <DataArray type="Int64" Name="offsets" format="ascii">
1
2
3
4
5
6
    </DataArray>
    <DataArray type="Int64" Name="types" format="ascii">
1
1
1
1
1
1
    </DataArray>
   </Cells>
  </Piece>
 </UnstructuredGrid>
</VTKFile>