<?xml version="1.0"?>
<VTKFile type="UnstructuredGrid" version="0.1" byte_order="LittleEndian" compressor="vtkZLibDataCompressor">
 <UnstructuredGrid GhostLevel="0">
  <Piece NumberOfPoints="6" NumberOfCells="6">
   <PointData>
    <DataArray type="Float64" Name="Elongation" NumberOfComponents="3"/>
-6.23271e-08 -1.97489e-05 -1.44414e-05
-1.18794e-06 1.6621e-06 -1.35863e-06
1.36443e-06 1.72807e-06 -1.49456e-06
-2.85416e-08 1.34003e-05 0
1.52578e-05 -6.59738e-06 0
-1.52352e-05 -6.82681e-06 0
    <DataArray type="Float64" Name="norm"/>
2.44658e-05
2.45349e-06
2.66113e-06
1.34004e-05
1.6623e-05
1.66948e-05
   </PointData>
   <CellData>
   </CellData>
   <Points>
    <DataArray type="Float64" Name="Points" NumberOfComponents="3"/>
2 2.05873 0.218134
2.05119 1.97033 0.218135
1.94881 1.97033 0.218135
2 2.11775 0.0999291
2.10238 1.94095 0.0999329
1.89762 1.94095 0.0999326
   </Points>
   <Cells>
    <DataArray type="Int64" Name="connectivity" format="ascii">
0
1
2
3
4
5
    </DataArray>
    <DataArray type="Int64" Name="offsets" format="ascii">
1
2
3
4
5
6
    </DataArray>
    <DataArray type="Int64" Name="types" format="ascii">
1
1
1
1
1
1
    </DataArray>
   </Cells>
  </Piece>
 </UnstructuredGrid>
</VTKFile>