<?xml version="1.0"?>
<VTKFile type="UnstructuredGrid" version="0.1" byte_order="LittleEndian" compressor="vtkZLibDataCompressor">
 <UnstructuredGrid GhostLevel="0">
  <Piece NumberOfPoints="6" NumberOfCells="6">
   <PointData>
    <DataArray type="Float64" Name="Elongation" NumberOfComponents="3"/>
-5.84268e-08 -1.97195e-05 -1.44244e-05
-8.35097e-07 1.20423e-06 -9.68028e-07
9.75493e-07 1.28373e-06 -1.08603e-06
-2.69385e-08 1.33973e-05 0
1.52547e-05 -6.58608e-06 0
-1.52393e-05 -6.82362e-06 0
    <DataArray type="Float64" Name="norm"/>
2.4432e-05
1.75631e-06
1.94397e-06
1.33973e-05
1.66157e-05
1.66973e-05
   </PointData>
   <CellData>
   </CellData>
   <Points>
    <DataArray type="Float64" Name="Points" NumberOfComponents="3"/>
2 2.05864 0.218125
2.05122 1.97027 0.218127
1.94877 1.97027 0.218127
2 2.11767 0.0999292
2.10245 1.94093 0.0999328
1.89755 1.94093 0.0999326
   </Points>
   <Cells>
    <DataArray type="Int64" Name="connectivity" format="ascii">
0
1
2
3
4
5
    </DataArray>
    <DataArray type="Int64" Name="offsets" format="ascii">
1
2
3
4
5
6
    </DataArray>
    <DataArray type="Int64" Name="types" format="ascii">
1
1
1
1
1
1
    </DataArray>
   </Cells>
  </Piece>
 </UnstructuredGrid>
</VTKFile>