<?xml version="1.0"?>
<VTKFile type="UnstructuredGrid" version="0.1" byte_order="LittleEndian" compressor="vtkZLibDataCompressor">
 <UnstructuredGrid GhostLevel="0">
  <Piece NumberOfPoints="6" NumberOfCells="6">
   <PointData>
    <DataArray type="Float64" Name="Elongation" NumberOfComponents="3"/>
-5.53567e-08 -1.96904e-05 -1.44119e-05
-7.4013e-07 1.07322e-06 -8.5993e-07
8.68295e-07 1.15381e-06 -9.70617e-07
-2.59171e-08 1.33749e-05 0
1.52839e-05 -6.5711e-06 0
-1.52704e-05 -6.81113e-06 0
    <DataArray type="Float64" Name="norm"/>
2.44011e-05
1.56175e-06
1.73992e-06
1.3375e-05
1.66366e-05
1.67205e-05
   </PointData>
   <CellData>
   </CellData>
   <Points>
    <DataArray type="Float64" Name="Points" NumberOfComponents="3"/>
2 2.05847 0.218108
2.05129 1.97015 0.21811
1.9487 1.97015 0.21811
1.99999 2.11752 0.0999292
2.10258 1.94088 0.0999328
1.89741 1.94088 0.0999326
   </Points>
   <Cells>
    <DataArray type="Int64" Name="connectivity" format="ascii">
0
1
2
3
4
5
    </DataArray>
    <DataArray type="Int64" Name="offsets" format="ascii">
1
2
3
4
5
6
    </DataArray>
    <DataArray type="Int64" Name="types" format="ascii">
1
1
1
1
1
1
    </DataArray>
   </Cells>
  </Piece>
 </UnstructuredGrid>
</VTKFile>