<?xml version="1.0"?>
<VTKFile type="UnstructuredGrid" version="0.1" byte_order="LittleEndian" compressor="vtkZLibDataCompressor">
 <UnstructuredGrid GhostLevel="0">
  <Piece NumberOfPoints="6" NumberOfCells="6">
   <PointData>
    <DataArray type="Float64" Name="Elongation" NumberOfComponents="3"/>
-6.00524e-08 -1.97442e-05 -1.44333e-05
-5.21731e-07 7.89658e-07 -6.18507e-07
6.25798e-07 8.7878e-07 -7.16931e-07
-2.96608e-08 1.3419e-05 0
1.5192e-05 -6.58665e-06 0
-1.5175e-05 -6.82744e-06 0
    <DataArray type="Float64" Name="norm"/>
2.44573e-05
1.13063e-06
1.29533e-06
1.3419e-05
1.65584e-05
1.66401e-05
   </PointData>
   <CellData>
   </CellData>
   <Points>
    <DataArray type="Float64" Name="Points" NumberOfComponents="3"/>
2 2.05882 0.218143
2.05115 1.9704 0.218145
1.94885 1.9704 0.218145
2 2.11783 0.0999291
2.1023 1.94098 0.0999328
1.8977 1.94098 0.0999326
   </Points>
   <Cells>
    <DataArray type="Int64" Name="connectivity" format="ascii">
0
1
2
3
4
5
    </DataArray>
    <DataArray type="Int64" Name="offsets" format="ascii">
1
2
3
4
5
6
    </DataArray>
    <DataArray type="Int64" Name="types" format="ascii">
1
1
1
1
1
1
    </DataArray>
   </Cells>
  </Piece>
 </UnstructuredGrid>
</VTKFile>