<?xml version="1.0"?>
<VTKFile type="UnstructuredGrid" version="0.1" byte_order="LittleEndian" compressor="vtkZLibDataCompressor">
 <UnstructuredGrid GhostLevel="0">
  <Piece NumberOfPoints="4" NumberOfCells="4">
   <PointData>
    <DataArray type="Float64" Name="radius"/>
0.1
0.1
0.1
0.1
    <DataArray type="Float64" Name="mass"/>
10.472
10.472
10.472
10.472
    <DataArray type="Float64" Name="particleIndex"/>
0
1
2
3
    <DataArray type="Float64" Name="clusterIndex"/>
0
1
2
3
    <DataArray type="Float64" Name="v" NumberOfComponents="3"/>
-1.6158e-05 -0.000342531 -1.21876e-05
-7.05426e-06 -0.000234618 -1.90881e-05
0.000205556 -6.85228e-05 -1.50166e-05
-0.000194956 -4.53981e-05 -3.80336e-05
    <DataArray type="Float64" Name="w" NumberOfComponents="3"/>
0.00851598 -0.00032032 -4.03595e-05
0.00272033 -9.45943e-05 -3.24835e-05
0.000463378 0.00218126 -0.000406196
0.00036655 -0.00222204 0.000447115
    <DataArray type="Float64" Name="FParticle" NumberOfComponents="3"/>
0.0569083 -7.87313 96.036
-0.000463042 23.3397 -31.9397
14.1361 -7.71434 -31.8315
-14.1925 -7.75226 -32.2648
    <DataArray type="Float64" Name="FGrav" NumberOfComponents="3"/>
0 0 -102.73
0 0 -102.73
0 0 -102.73
0 0 -102.73
    <DataArray type="Float64" Name="MParticle" NumberOfComponents="3"/>
-0.640442 0.0175952 -0.000288209
0 0 0
-0.31538 -0.485815 -0.0223208
-0.325061 0.50341 0.0220326
    <DataArray type="Float64" Name="FWall" NumberOfComponents="3"/>
0 0 0
-0.437476 -18.3261 141.949
-14.3218 9.52023 134.254
14.0758 9.58356 134.732
    <DataArray type="Float64" Name="MWall" NumberOfComponents="3"/>
0 0 0
-1.83261 0.0437476 0
0.952023 1.43218 0
0.958356 -1.40758 0
    <DataArray type="Float64" Name="FHydro" NumberOfComponents="3"/>
0 0 0
0 0 0
0 0 0
0 0 0
    <DataArray type="Float64" Name="FSpringP" NumberOfComponents="3"/>
-0.142922 -5.39743 6.9442
0 0 0
-3.85651 2.66037 -3.41288
3.99943 2.73706 -3.53133
    <DataArray type="Float64" Name="FSpringW" NumberOfComponents="3"/>
0 0 0
-0.437476 -18.3261 0
-14.3218 9.52023 0
14.0758 9.58356 0
    <DataArray type="Float64" Name="MRolling" NumberOfComponents="3"/>
-0.336096 -0.192551 0.0523857
-2.8329 0.426294 -0.0710152
2.00953 -1.76757 0.943233
1.99869 1.79935 -0.940579
   </PointData>
   <CellData>
   </CellData>
   <Points>
    <DataArray type="Float64" Name="Points" NumberOfComponents="3"/>
2 1.99994 0.298877
2 2.11792 0.137429
2.10222 1.94101 0.137433
1.89779 1.94101 0.137433
   </Points>
   <Cells>
    <DataArray type="Int64" Name="connectivity" format="ascii">
0
1
2
3
    </DataArray>
    <DataArray type="Int64" Name="offsets" format="ascii">
1
2
3
4
    </DataArray>
    <DataArray type="Int64" Name="types" format="ascii">
1
1
1
1
    </DataArray>
   </Cells>
  </Piece>
 </UnstructuredGrid>
</VTKFile>