<?xml version="1.0"?>
<VTKFile type="UnstructuredGrid" version="0.1" byte_order="LittleEndian" compressor="vtkZLibDataCompressor">
 <UnstructuredGrid GhostLevel="0">
  <Piece NumberOfPoints="4" NumberOfCells="4">
   <PointData>
    <DataArray type="Float64" Name="radius"/>
0.1
0.1
0.1
0.1
    <DataArray type="Float64" Name="mass"/>
10.472
10.472
10.472
10.472
    <DataArray type="Float64" Name="particleIndex"/>
0
1
2
3
    <DataArray type="Float64" Name="clusterIndex"/>
0
1
2
3
    <DataArray type="Float64" Name="v" NumberOfComponents="3"/>
-3.60674e-07 -0.000272427 -0.000136573
-3.65427e-06 -0.000242893 1.14234e-05
0.000254137 -9.75668e-05 4.0406e-05
-0.00025347 -8.49783e-05 4.04131e-05
    <DataArray type="Float64" Name="w" NumberOfComponents="3"/>
0.0088247 -0.000276219 -2.62895e-05
0.0029646 -0.000104957 -1.17664e-05
0.000498677 0.00230261 -0.000402693
0.000452813 -0.00234252 0.000422704
    <DataArray type="Float64" Name="FParticle" NumberOfComponents="3"/>
0.0396278 -7.76473 95.9546
-0.000586339 23.3608 -31.949
14.4226 -7.76992 -31.7587
-14.4616 -7.82617 -32.2469
    <DataArray type="Float64" Name="FGrav" NumberOfComponents="3"/>
0 0 -102.73
0 0 -102.73
0 0 -102.73
0 0 -102.73
    <DataArray type="Float64" Name="MParticle" NumberOfComponents="3"/>
-0.622701 0.0218582 -0.00176417
0 0 0
-0.306476 -0.461455 -0.0262826
-0.316226 0.483313 0.0245184
    <DataArray type="Float64" Name="FWall" NumberOfComponents="3"/>
0 0 0
-0.516358 -18.3664 141.766
-14.4968 9.58188 134.246
14.3524 9.74776 134.688
    <DataArray type="Float64" Name="MWall" NumberOfComponents="3"/>
0 0 0
-1.83664 0.0516358 0
0.958188 1.44968 0
0.974776 -1.43524 0
    <DataArray type="Float64" Name="FHydro" NumberOfComponents="3"/>
0 0 0
0 0 0
0 0 0
0 0 0
    <DataArray type="Float64" Name="FSpringP" NumberOfComponents="3"/>
-0.181642 -5.28645 6.66661
0 0 0
-3.64756 2.60838 -3.26305
3.82921 2.67807 -3.40357
    <DataArray type="Float64" Name="FSpringW" NumberOfComponents="3"/>
0 0 0
-0.516358 -18.3664 0
-14.4968 9.58188 0
14.3524 9.74776 0
    <DataArray type="Float64" Name="MRolling" NumberOfComponents="3"/>
-0.362054 -0.194922 0.0424627
-2.80361 0.429857 -0.0646215
1.9457 -1.85762 0.896364
1.91732 1.91105 -0.878082
   </PointData>
   <CellData>
   </CellData>
   <Points>
    <DataArray type="Float64" Name="Points" NumberOfComponents="3"/>
2 1.99974 0.298843
2 2.11777 0.137429
2.10236 1.94096 0.137433
1.89764 1.94096 0.137433
   </Points>
   <Cells>
    <DataArray type="Int64" Name="connectivity" format="ascii">
0
1
2
3
    </DataArray>
    <DataArray type="Int64" Name="offsets" format="ascii">
1
2
3
4
    </DataArray>
    <DataArray type="Int64" Name="types" format="ascii">
1
1
1
1
    </DataArray>
   </Cells>
  </Piece>
 </UnstructuredGrid>
</VTKFile>