<?xml version="1.0"?>
<VTKFile type="UnstructuredGrid" version="0.1" byte_order="LittleEndian" compressor="vtkZLibDataCompressor">
 <UnstructuredGrid GhostLevel="0">
  <Piece NumberOfPoints="4" NumberOfCells="4">
   <PointData>
    <DataArray type="Float64" Name="radius"/>
0.1
0.1
0.1
0.1
    <DataArray type="Float64" Name="mass"/>
10.472
10.472
10.472
10.472
    <DataArray type="Float64" Name="particleIndex"/>
0
1
2
3
    <DataArray type="Float64" Name="clusterIndex"/>
0
1
2
3
    <DataArray type="Float64" Name="v" NumberOfComponents="3"/>
1.47874e-05 -0.000256646 -0.00011815
2.58475e-06 -0.000247757 1.74855e-05
0.00024399 -9.92599e-05 2.36986e-05
-0.000271738 -0.000112822 4.7922e-05
    <DataArray type="Float64" Name="w" NumberOfComponents="3"/>
0.00979459 2.74326e-05 -2.96902e-05
0.00345467 -8.08666e-05 -1.08418e-05
0.000680789 0.00246092 -0.000294665
0.000613302 -0.00251374 0.000352139
    <DataArray type="Float64" Name="FParticle" NumberOfComponents="3"/>
-0.0541839 -7.18349 94.5229
-0.000908486 23.1472 -31.5989
15.226 -7.97327 -31.1821
-15.1709 -7.99045 -31.742
    <DataArray type="Float64" Name="FGrav" NumberOfComponents="3"/>
0 0 -102.73
0 0 -102.73
0 0 -102.73
0 0 -102.73
    <DataArray type="Float64" Name="MParticle" NumberOfComponents="3"/>
-0.547806 0.033284 -0.00257832
0 0 0
-0.266504 -0.374394 -0.0343994
-0.281302 0.407678 0.031821
    <DataArray type="Float64" Name="FWall" NumberOfComponents="3"/>
0 0 0
-0.345926 -18.4513 141.607
-14.2744 9.36712 134.495
14.2542 9.67825 134.947
    <DataArray type="Float64" Name="MWall" NumberOfComponents="3"/>
0 0 0
-1.84513 0.0345926 0
0.936712 1.42744 0
0.967825 -1.42542 0
    <DataArray type="Float64" Name="FHydro" NumberOfComponents="3"/>
0 0 0
0 0 0
0 0 0
0 0 0
    <DataArray type="Float64" Name="FSpringP" NumberOfComponents="3"/>
-0.276044 -4.75941 5.61766
0 0 0
-2.91981 2.32664 -2.70173
3.19585 2.43277 -2.91593
    <DataArray type="Float64" Name="FSpringW" NumberOfComponents="3"/>
0 0 0
-0.345926 -18.4513 0
-14.2744 9.36712 0
14.2542 9.67825 0
    <DataArray type="Float64" Name="MRolling" NumberOfComponents="3"/>
-0.487011 -0.135941 0.0144474
-2.68174 0.279177 -0.0130223
1.84526 -2.05854 0.625528
1.77104 2.11325 -0.702456
   </PointData>
   <CellData>
   </CellData>
   <Points>
    <DataArray type="Float64" Name="Points" NumberOfComponents="3"/>
2 1.99915 0.29874
1.99999 2.11731 0.137429
2.10277 1.94081 0.137433
1.89722 1.94082 0.137432
   </Points>
   <Cells>
    <DataArray type="Int64" Name="connectivity" format="ascii">
0
1
2
3
    </DataArray>
    <DataArray type="Int64" Name="offsets" format="ascii">
1
2
3
4
    </DataArray>
    <DataArray type="Int64" Name="types" format="ascii">
1
1
1
1
    </DataArray>
   </Cells>
  </Piece>
 </UnstructuredGrid>
</VTKFile>