<?xml version="1.0"?>
<VTKFile type="UnstructuredGrid" version="0.1" byte_order="LittleEndian" compressor="vtkZLibDataCompressor">
 <UnstructuredGrid GhostLevel="0">
  <Piece NumberOfPoints="4" NumberOfCells="4">
   <PointData>
    <DataArray type="Float64" Name="radius"/>
0.1
0.1
0.1
0.1
    <DataArray type="Float64" Name="mass"/>
10.472
10.472
10.472
10.472
    <DataArray type="Float64" Name="particleIndex"/>
0
1
2
3
    <DataArray type="Float64" Name="clusterIndex"/>
0
1
2
3
    <DataArray type="Float64" Name="v" NumberOfComponents="3"/>
-1.40361e-05 -0.000367215 3.39786e-05
-5.90314e-06 -0.000232993 -2.4018e-05
0.000191121 -5.63333e-05 -3.55533e-05
-0.000183626 -4.176e-05 -5.57999e-05
    <DataArray type="Float64" Name="w" NumberOfComponents="3"/>
0.0084757 -0.000328037 -3.41952e-05
0.00272926 -8.54996e-05 -3.6908e-05
0.000442254 0.0021572 -0.000406374
0.000347293 -0.00227482 0.0004492
    <DataArray type="Float64" Name="FParticle" NumberOfComponents="3"/>
-0.123748 -7.95756 96.0597
-0.000987648 23.1203 -31.5553
14.2642 -7.58012 -31.9421
-14.1395 -7.58258 -32.5624
    <DataArray type="Float64" Name="FGrav" NumberOfComponents="3"/>
0 0 -102.73
0 0 -102.73
0 0 -102.73
0 0 -102.73
    <DataArray type="Float64" Name="MParticle" NumberOfComponents="3"/>
-0.656922 0.0420315 -0.00385211
0 0 0
-0.319604 -0.491908 -0.0259898
-0.337318 0.53394 0.0221377
    <DataArray type="Float64" Name="FWall" NumberOfComponents="3"/>
0 0 0
-0.414711 -18.1931 141.665
-14.4417 9.42104 134.436
13.946 9.44335 134.955
    <DataArray type="Float64" Name="MWall" NumberOfComponents="3"/>
0 0 0
-1.81931 0.0414711 0
0.942104 1.44417 0
0.944335 -1.3946 0
    <DataArray type="Float64" Name="FHydro" NumberOfComponents="3"/>
0 0 0
0 0 0
0 0 0
0 0 0
    <DataArray type="Float64" Name="FSpringP" NumberOfComponents="3"/>
-0.350288 -5.54635 7.18971
0 0 0
-3.89207 2.71163 -3.46099
4.24236 2.83472 -3.72871
    <DataArray type="Float64" Name="FSpringW" NumberOfComponents="3"/>
0 0 0
-0.414711 -18.1931 0
-14.4417 9.42104 0
13.946 9.44335 0
    <DataArray type="Float64" Name="MRolling" NumberOfComponents="3"/>
-0.360243 -0.182662 0.0847588
-2.80508 0.389293 -0.126141
2.04892 -1.72678 0.949663
1.90165 1.9192 -0.911981
   </PointData>
   <CellData>
   </CellData>
   <Points>
    <DataArray type="Float64" Name="Points" NumberOfComponents="3"/>
2 1.99908 0.298728
1.99999 2.11726 0.137429
2.10282 1.9408 0.137433
1.89717 1.94081 0.137433
   </Points>
   <Cells>
    <DataArray type="Int64" Name="connectivity" format="ascii">
0
1
2
3
    </DataArray>
    <DataArray type="Int64" Name="offsets" format="ascii">
1
2
3
4
    </DataArray>
    <DataArray type="Int64" Name="types" format="ascii">
1
1
1
1
    </DataArray>
   </Cells>
  </Piece>
 </UnstructuredGrid>
</VTKFile>