<?xml version="1.0"?>
<VTKFile type="UnstructuredGrid" version="0.1" byte_order="LittleEndian" compressor="vtkZLibDataCompressor">
 <UnstructuredGrid GhostLevel="0">
  <Piece NumberOfPoints="4" NumberOfCells="4">
   <PointData>
    <DataArray type="Float64" Name="radius"/>
0.1
0.1
0.1
0.1
    <DataArray type="Float64" Name="mass"/>
10.472
10.472
10.472
10.472
    <DataArray type="Float64" Name="particleIndex"/>
0
1
2
3
    <DataArray type="Float64" Name="clusterIndex"/>
0
1
2
3
    <DataArray type="Float64" Name="v" NumberOfComponents="3"/>
1.1928e-05 -0.000272363 -5.97587e-05
3.51932e-06 -0.000249096 7.23402e-06
0.000212472 -8.55671e-05 -3.11074e-06
-0.000247015 -0.000108968 2.22011e-05
    <DataArray type="Float64" Name="w" NumberOfComponents="3"/>
0.0100814 7.05712e-05 2.57734e-06
0.00338845 7.68398e-05 9.48945e-06
0.000211279 0.00294386 -3.67006e-05
0.00018174 -0.00280313 0.000204315
    <DataArray type="Float64" Name="FParticle" NumberOfComponents="3"/>
0.850299 -7.84395 94.4772
-0.00065039 23.1805 -31.6896
14.7606 -7.33196 -31.5243
-15.6102 -8.00463 -31.2633
    <DataArray type="Float64" Name="FGrav" NumberOfComponents="3"/>
0 0 -102.73
0 0 -102.73
0 0 -102.73
0 0 -102.73
    <DataArray type="Float64" Name="MParticle" NumberOfComponents="3"/>
-0.60486 -0.0819183 -0.00957467
0 0 0
-0.333445 -0.423797 -0.0575616
-0.271414 0.341879 0.0479869
    <DataArray type="Float64" Name="FWall" NumberOfComponents="3"/>
0 0 0
0.0910318 -18.4413 141.801
-12.4434 8.82554 134.457
13.9061 9.93376 134.918
    <DataArray type="Float64" Name="MWall" NumberOfComponents="3"/>
0 0 0
-1.84413 -0.00910318 0
0.882554 1.24434 0
0.993376 -1.39061 0
    <DataArray type="Float64" Name="FHydro" NumberOfComponents="3"/>
0 0 0
0 0 0
0 0 0
0 0 0
    <DataArray type="Float64" Name="FSpringP" NumberOfComponents="3"/>
0.633024 -5.42248 5.69797
0 0 0
-3.25145 2.98608 -3.14988
2.61843 2.4364 -2.54809
    <DataArray type="Float64" Name="FSpringW" NumberOfComponents="3"/>
0 0 0
0.0910318 -18.4413 0
-12.4434 8.82554 0
13.9061 9.93376 0
    <DataArray type="Float64" Name="MRolling" NumberOfComponents="3"/>
-0.52596 -0.0166652 -0.0114194
-2.64291 -0.00150371 0.0251157
1.16111 -2.55555 -0.198766
1.90136 2.11196 -0.19991
   </PointData>
   <CellData>
   </CellData>
   <Points>
    <DataArray type="Float64" Name="Points" NumberOfComponents="3"/>
2 1.99961 0.298821
2 2.11767 0.137429
2.10245 1.94092 0.137433
1.89755 1.94093 0.137433
   </Points>
   <Cells>
    <DataArray type="Int64" Name="connectivity" format="ascii">
0
1
2
3
    </DataArray>
    <DataArray type="Int64" Name="offsets" format="ascii">
1
2
3
4
    </DataArray>
    <DataArray type="Int64" Name="types" format="ascii">
1
1
1
1
    </DataArray>
   </Cells>
  </Piece>
 </UnstructuredGrid>
</VTKFile>