<?xml version="1.0"?>
<VTKFile type="UnstructuredGrid" version="0.1" byte_order="LittleEndian" compressor="vtkZLibDataCompressor">
 <UnstructuredGrid GhostLevel="0">
  <Piece NumberOfPoints="4" NumberOfCells="4">
   <PointData>
    <DataArray type="Float64" Name="radius"/>
0.1
0.1
0.1
0.1
    <DataArray type="Float64" Name="mass"/>
10.472
10.472
10.472
10.472
    <DataArray type="Float64" Name="particleIndex"/>
0
1
2
3
    <DataArray type="Float64" Name="clusterIndex"/>
0
1
2
3
    <DataArray type="Float64" Name="v" NumberOfComponents="3"/>
-5.34034e-06 -0.000300361 -9.0202e-05
-4.06093e-06 -0.000239367 -3.39193e-06
0.000236852 -8.43117e-05 1.99985e-05
-0.00023108 -6.89045e-05 1.19215e-05
    <DataArray type="Float64" Name="w" NumberOfComponents="3"/>
0.0086259 -0.000289944 -2.54446e-05
0.00283498 -8.5989e-05 -1.77127e-05
0.000477513 0.0022481 -0.000404503
0.000422374 -0.00229705 0.00043836
    <DataArray type="Float64" Name="FParticle" NumberOfComponents="3"/>
0.0660524 -7.7865 96.1168
-0.000856803 23.261 -31.7623
14.4066 -7.69175 -31.942
-14.4718 -7.78271 -32.4126
    <DataArray type="Float64" Name="FGrav" NumberOfComponents="3"/>
0 0 -102.73
0 0 -102.73
0 0 -102.73
0 0 -102.73
    <DataArray type="Float64" Name="MParticle" NumberOfComponents="3"/>
-0.630911 0.0189741 -0.00284523
0 0 0
-0.312323 -0.478527 -0.0256337
-0.318588 0.497501 0.0227884
    <DataArray type="Float64" Name="FWall" NumberOfComponents="3"/>
0 0 0
-0.487701 -18.2563 141.592
-14.5857 9.51869 134.324
14.3949 9.66283 134.786
    <DataArray type="Float64" Name="MWall" NumberOfComponents="3"/>
0 0 0
-1.82563 0.0487701 0
0.951869 1.45857 0
0.966283 -1.43949 0
    <DataArray type="Float64" Name="FHydro" NumberOfComponents="3"/>
0 0 0
0 0 0
0 0 0
0 0 0
    <DataArray type="Float64" Name="FSpringP" NumberOfComponents="3"/>
-0.161407 -5.33862 6.85612
0 0 0
-3.78566 2.65134 -3.3702
3.94706 2.68728 -3.48592
    <DataArray type="Float64" Name="FSpringW" NumberOfComponents="3"/>
0 0 0
-0.487701 -18.2563 0
-14.5857 9.51869 0
14.3949 9.66283 0
    <DataArray type="Float64" Name="MRolling" NumberOfComponents="3"/>
-0.341736 -0.192768 0.0530159
-2.82247 0.419185 -0.0793421
1.99125 -1.79969 0.925618
1.95375 1.85606 -0.926989
   </PointData>
   <CellData>
   </CellData>
   <Points>
    <DataArray type="Float64" Name="Points" NumberOfComponents="3"/>
2 1.99923 0.298754
1.99999 2.11738 0.137429
2.10271 1.94083 0.137433
1.89728 1.94084 0.137433
   </Points>
   <Cells>
    <DataArray type="Int64" Name="connectivity" format="ascii">
0
1
2
3
    </DataArray>
    <DataArray type="Int64" Name="offsets" format="ascii">
1
2
3
4
    </DataArray>
    <DataArray type="Int64" Name="types" format="ascii">
1
1
1
1
    </DataArray>
   </Cells>
  </Piece>
 </UnstructuredGrid>
</VTKFile>