<?xml version="1.0"?>
<VTKFile type="UnstructuredGrid" version="0.1" byte_order="LittleEndian" compressor="vtkZLibDataCompressor">
 <UnstructuredGrid GhostLevel="0">
  <Piece NumberOfPoints="4" NumberOfCells="4">
   <PointData>
    <DataArray type="Float64" Name="radius"/>
0.1
0.1
0.1
0.1
    <DataArray type="Float64" Name="mass"/>
10.472
10.472
10.472
10.472
    <DataArray type="Float64" Name="particleIndex"/>
0
1
2
3
    <DataArray type="Float64" Name="clusterIndex"/>
0
1
2
3
    <DataArray type="Float64" Name="v" NumberOfComponents="3"/>
-6.61098e-06 -0.000298445 -8.95234e-05
-4.36663e-06 -0.000238595 -4.14785e-06
0.000236316 -8.44158e-05 1.96978e-05
-0.000230651 -6.85715e-05 1.11545e-05
    <DataArray type="Float64" Name="w" NumberOfComponents="3"/>
0.00862762 -0.000294464 -2.46963e-05
0.00282827 -8.57007e-05 -1.79919e-05
0.00047796 0.00224359 -0.00040494
0.0004199 -0.00229404 0.000438602
    <DataArray type="Float64" Name="FParticle" NumberOfComponents="3"/>
0.0687349 -7.81571 96.109
-0.00070239 23.3117 -31.8606
14.3485 -7.70489 -31.8905
-14.4166 -7.79108 -32.3579
    <DataArray type="Float64" Name="FGrav" NumberOfComponents="3"/>
0 0 -102.73
0 0 -102.73
0 0 -102.73
0 0 -102.73
    <DataArray type="Float64" Name="MParticle" NumberOfComponents="3"/>
-0.632916 0.0185031 -0.00247531
0 0 0
-0.313133 -0.476878 -0.0256726
-0.319782 0.495381 0.0231972
    <DataArray type="Float64" Name="FWall" NumberOfComponents="3"/>
0 0 0
-0.488347 -18.2916 141.7
-14.526 9.53583 134.272
14.336 9.67591 134.731
    <DataArray type="Float64" Name="MWall" NumberOfComponents="3"/>
0 0 0
-1.82916 0.0488347 0
0.953583 1.4526 0
0.967591 -1.4336 0
    <DataArray type="Float64" Name="FHydro" NumberOfComponents="3"/>
0 0 0
0 0 0
0 0 0
0 0 0
    <DataArray type="Float64" Name="FSpringP" NumberOfComponents="3"/>
-0.156599 -5.35821 6.83959
0 0 0
-3.77318 2.65861 -3.36264
3.92978 2.69959 -3.47695
    <DataArray type="Float64" Name="FSpringW" NumberOfComponents="3"/>
0 0 0
-0.488347 -18.2916 0
-14.526 9.53583 0
14.336 9.67591 0
    <DataArray type="Float64" Name="MRolling" NumberOfComponents="3"/>
-0.34265 -0.193478 0.0519457
-2.82303 0.420836 -0.0775548
1.98831 -1.80138 0.924473
1.95299 1.85668 -0.923005
   </PointData>
   <CellData>
   </CellData>
   <Points>
    <DataArray type="Float64" Name="Points" NumberOfComponents="3"/>
2 1.99953 0.298806
1.99999 2.1176 0.137429
2.10251 1.9409 0.137433
1.89749 1.94091 0.137433
   </Points>
   <Cells>
    <DataArray type="Int64" Name="connectivity" format="ascii">
0
1
2
3
    </DataArray>
    <DataArray type="Int64" Name="offsets" format="ascii">
1
2
3
4
    </DataArray>
    <DataArray type="Int64" Name="types" format="ascii">
1
1
1
1
    </DataArray>
   </Cells>
  </Piece>
 </UnstructuredGrid>
</VTKFile>