<?xml version="1.0"?>
<VTKFile type="UnstructuredGrid" version="0.1" byte_order="LittleEndian" compressor="vtkZLibDataCompressor">
 <UnstructuredGrid GhostLevel="0">
  <Piece NumberOfPoints="4" NumberOfCells="4">
   <PointData>
    <DataArray type="Float64" Name="radius"/>
0.1
0.1
0.1
0.1
    <DataArray type="Float64" Name="mass"/>
10.472
10.472
10.472
10.472
    <DataArray type="Float64" Name="particleIndex"/>
0
1
2
3
    <DataArray type="Float64" Name="clusterIndex"/>
0
1
2
3
    <DataArray type="Float64" Name="v" NumberOfComponents="3"/>
1.33669e-05 -0.000261323 -8.50485e-05
3.66747e-06 -0.000248324 1.17195e-05
0.000227624 -9.12842e-05 9.09692e-06
-0.000258383 -0.000111109 3.35515e-05
    <DataArray type="Float64" Name="w" NumberOfComponents="3"/>
0.0100594 3.76737e-05 -8.88413e-06
0.00343418 -1.28719e-05 -7.12397e-06
0.000131175 0.002691 -0.000140144
0.000604857 -0.00248036 0.000264544
    <DataArray type="Float64" Name="FParticle" NumberOfComponents="3"/>
-0.0710852 -6.99066 93.7948
-0.000619143 23.2075 -31.7323
15.5419 -8.13589 -30.7389
-15.4702 -8.08098 -31.3235
    <DataArray type="Float64" Name="FGrav" NumberOfComponents="3"/>
0 0 -102.73
0 0 -102.73
0 0 -102.73
0 0 -102.73
    <DataArray type="Float64" Name="MParticle" NumberOfComponents="3"/>
-0.513859 0.0357451 0.000665085
0 0 0
-0.246165 -0.319779 -0.0398252
-0.267694 0.355524 0.0404903
    <DataArray type="Float64" Name="FWall" NumberOfComponents="3"/>
0 0 0
-0.102376 -18.4665 141.81
-14.165 9.75208 134.434
14.3616 9.82766 134.884
    <DataArray type="Float64" Name="MWall" NumberOfComponents="3"/>
0 0 0
-1.84665 0.0102376 0
0.975208 1.4165 0
0.982766 -1.43616 0
    <DataArray type="Float64" Name="FHydro" NumberOfComponents="3"/>
0 0 0
0 0 0
0 0 0
0 0 0
    <DataArray type="Float64" Name="FSpringP" NumberOfComponents="3"/>
-0.286577 -4.55884 4.96763
0 0 0
-2.46407 2.19083 -2.36068
2.75064 2.36801 -2.60694
    <DataArray type="Float64" Name="FSpringW" NumberOfComponents="3"/>
0 0 0
-0.102376 -18.4665 0
-14.165 9.75208 0
14.3616 9.82766 0
    <DataArray type="Float64" Name="MRolling" NumberOfComponents="3"/>
-0.535465 -0.041573 0.0102778
-2.64322 0.0866571 0.00192514
2.09276 -1.91643 0.143195
1.97247 1.99543 -0.487507
   </PointData>
   <CellData>
   </CellData>
   <Points>
    <DataArray type="Float64" Name="Points" NumberOfComponents="3"/>
2 1.99967 0.298831
2 2.11771 0.137429
2.10241 1.94094 0.137433
1.89759 1.94094 0.137433
   </Points>
   <Cells>
    <DataArray type="Int64" Name="connectivity" format="ascii">
0
1
2
3
    </DataArray>
    <DataArray type="Int64" Name="offsets" format="ascii">
1
2
3
4
    </DataArray>
    <DataArray type="Int64" Name="types" format="ascii">
1
1
1
1
    </DataArray>
   </Cells>
  </Piece>
 </UnstructuredGrid>
</VTKFile>