<?xml version="1.0"?>
<VTKFile type="UnstructuredGrid" version="0.1" byte_order="LittleEndian" compressor="vtkZLibDataCompressor">
 <UnstructuredGrid GhostLevel="0">
  <Piece NumberOfPoints="4" NumberOfCells="4">
   <PointData>
    <DataArray type="Float64" Name="radius"/>
0.1
0.1
0.1
0.1
    <DataArray type="Float64" Name="mass"/>
10.472
10.472
10.472
10.472
    <DataArray type="Float64" Name="particleIndex"/>
0
1
2
3
    <DataArray type="Float64" Name="clusterIndex"/>
0
1
2
3
    <DataArray type="Float64" Name="v" NumberOfComponents="3"/>
-7.23135e-06 -0.000301932 -8.19833e-05
-4.44915e-06 -0.000238161 -5.33346e-06
0.00023328 -8.26655e-05 1.70663e-05
-0.000227301 -6.65806e-05 7.68585e-06
    <DataArray type="Float64" Name="w" NumberOfComponents="3"/>
0.00861444 -0.000295956 -2.52529e-05
0.00281513 -8.44195e-05 -1.89025e-05
0.000475104 0.00223463 -0.000405398
0.000415079 -0.00228631 0.000439583
    <DataArray type="Float64" Name="FParticle" NumberOfComponents="3"/>
0.0704051 -7.83192 96.1106
-0.000633782 23.3304 -31.8988
14.3092 -7.705 -31.8725
-14.379 -7.79347 -32.3393
    <DataArray type="Float64" Name="FGrav" NumberOfComponents="3"/>
0 0 -102.73
0 0 -102.73
0 0 -102.73
0 0 -102.73
    <DataArray type="Float64" Name="MParticle" NumberOfComponents="3"/>
-0.634614 0.0183061 -0.00252253
0 0 0
-0.314061 -0.477523 -0.0255596
-0.320554 0.495829 0.023037
    <DataArray type="Float64" Name="FWall" NumberOfComponents="3"/>
0 0 0
-0.48563 -18.3027 141.749
-14.4904 9.53596 134.249
14.2949 9.67441 134.711
    <DataArray type="Float64" Name="MWall" NumberOfComponents="3"/>
0 0 0
-1.83027 0.048563 0
0.953596 1.44904 0
0.967441 -1.42949 0
    <DataArray type="Float64" Name="FHydro" NumberOfComponents="3"/>
0 0 0
0 0 0
0 0 0
0 0 0
    <DataArray type="Float64" Name="FSpringP" NumberOfComponents="3"/>
-0.155179 -5.371 6.84885
0 0 0
-3.77912 2.66575 -3.36803
3.93429 2.70525 -3.48082
    <DataArray type="Float64" Name="FSpringW" NumberOfComponents="3"/>
0 0 0
-0.48563 -18.3027 0
-14.4904 9.53596 0
14.2949 9.67441 0
    <DataArray type="Float64" Name="MRolling" NumberOfComponents="3"/>
-0.341554 -0.193619 0.0522962
-2.82484 0.420729 -0.0777803
1.99143 -1.79617 0.926369
1.95618 1.85208 -0.92422
   </PointData>
   <CellData>
   </CellData>
   <Points>
    <DataArray type="Float64" Name="Points" NumberOfComponents="3"/>
2 1.99966 0.298828
2 2.1177 0.137429
2.10242 1.94094 0.137433
1.89758 1.94094 0.137433
   </Points>
   <Cells>
    <DataArray type="Int64" Name="connectivity" format="ascii">
0
1
2
3
    </DataArray>
    <DataArray type="Int64" Name="offsets" format="ascii">
1
2
3
4
    </DataArray>
    <DataArray type="Int64" Name="types" format="ascii">
1
1
1
1
    </DataArray>
   </Cells>
  </Piece>
 </UnstructuredGrid>
</VTKFile>