<?xml version="1.0"?>
<VTKFile type="UnstructuredGrid" version="0.1" byte_order="LittleEndian" compressor="vtkZLibDataCompressor">
 <UnstructuredGrid GhostLevel="0">
  <Piece NumberOfPoints="4" NumberOfCells="4">
   <PointData>
    <DataArray type="Float64" Name="radius"/>
0.1
0.1
0.1
0.1
    <DataArray type="Float64" Name="mass"/>
10.472
10.472
10.472
10.472
    <DataArray type="Float64" Name="particleIndex"/>
0
1
2
3
    <DataArray type="Float64" Name="clusterIndex"/>
0
1
2
3
    <DataArray type="Float64" Name="v" NumberOfComponents="3"/>
-6.8942e-06 -0.000304816 -8.50939e-05
-5.65114e-06 -0.000238734 -4.98778e-06
0.000237979 -9.0526e-05 2.26335e-05
-0.000227132 -6.29711e-05 5.51824e-06
    <DataArray type="Float64" Name="w" NumberOfComponents="3"/>
0.00862201 -0.000280752 -2.97365e-05
0.00282594 -9.51398e-05 -2.05069e-05
0.000494974 0.00226756 -0.000403807
0.000413326 -0.0022873 0.000439088
    <DataArray type="Float64" Name="FParticle" NumberOfComponents="3"/>
0.0596724 -7.76717 96.1558
-0.00117141 23.2438 -31.7119
14.4566 -7.73431 -31.9853
-14.5151 -7.74233 -32.4585
    <DataArray type="Float64" Name="FGrav" NumberOfComponents="3"/>
0 0 -102.73
0 0 -102.73
0 0 -102.73
0 0 -102.73
    <DataArray type="Float64" Name="MParticle" NumberOfComponents="3"/>
-0.627058 0.019726 0.00118159
0 0 0
-0.307063 -0.48012 -0.0226878
-0.319995 0.499846 0.0238694
    <DataArray type="Float64" Name="FWall" NumberOfComponents="3"/>
0 0 0
-0.47539 -18.2495 141.523
-14.6233 9.55351 134.341
14.4482 9.61529 134.807
    <DataArray type="Float64" Name="MWall" NumberOfComponents="3"/>
0 0 0
-1.82495 0.047539 0
0.955351 1.46233 0
0.961529 -1.44482 0
    <DataArray type="Float64" Name="FHydro" NumberOfComponents="3"/>
0 0 0
0 0 0
0 0 0
0 0 0
    <DataArray type="Float64" Name="FSpringP" NumberOfComponents="3"/>
-0.155682 -5.29691 6.86804
0 0 0
-3.8062 2.59326 -3.36446
3.96188 2.70365 -3.50357
    <DataArray type="Float64" Name="FSpringW" NumberOfComponents="3"/>
0 0 0
-0.47539 -18.2495 0
-14.6233 9.55351 0
14.4482 9.61529 0
    <DataArray type="Float64" Name="MRolling" NumberOfComponents="3"/>
-0.345348 -0.193398 0.0442665
-2.81759 0.426371 -0.062679
1.96773 -1.82416 0.927818
1.96796 1.83975 -0.932587
   </PointData>
   <CellData>
   </CellData>
   <Points>
    <DataArray type="Float64" Name="Points" NumberOfComponents="3"/>
2 1.99896 0.298707
1.99999 2.11717 0.137429
2.1029 1.94077 0.137433
1.89708 1.94078 0.137433
   </Points>
   <Cells>
    <DataArray type="Int64" Name="connectivity" format="ascii">
0
1
2
3
    </DataArray>
    <DataArray type="Int64" Name="offsets" format="ascii">
1
2
3
4
    </DataArray>
    <DataArray type="Int64" Name="types" format="ascii">
1
1
1
1
    </DataArray>
   </Cells>
  </Piece>
 </UnstructuredGrid>
</VTKFile>