<?xml version="1.0"?>
<VTKFile type="UnstructuredGrid" version="0.1" byte_order="LittleEndian" compressor="vtkZLibDataCompressor">
 <UnstructuredGrid GhostLevel="0">
  <Piece NumberOfPoints="4" NumberOfCells="4">
   <PointData>
    <DataArray type="Float64" Name="radius"/>
0.1
0.1
0.1
0.1
    <DataArray type="Float64" Name="mass"/>
10.472
10.472
10.472
10.472
    <DataArray type="Float64" Name="particleIndex"/>
0
1
2
3
    <DataArray type="Float64" Name="clusterIndex"/>
0
1
2
3
    <DataArray type="Float64" Name="v" NumberOfComponents="3"/>
1.3637e-05 -0.00025161 -0.000138959
9.13257e-07 -0.000246699 2.18992e-05
0.000253709 -0.000104812 3.57718e-05
-0.000275649 -0.000111047 5.52508e-05
    <DataArray type="Float64" Name="w" NumberOfComponents="3"/>
0.00961136 -0.000102646 -3.58797e-05
0.00335186 -0.000143317 -1.07763e-05
0.000512846 0.00249072 -0.000381333
0.000545822 -0.00246852 0.000376549
    <DataArray type="Float64" Name="FParticle" NumberOfComponents="3"/>
0.0419276 -7.31277 94.8923
-0.000528439 23.2983 -31.873
14.845 -8.00312 -31.2602
-14.8864 -7.9824 -31.7591
    <DataArray type="Float64" Name="FGrav" NumberOfComponents="3"/>
0 0 -102.73
0 0 -102.73
0 0 -102.73
0 0 -102.73
    <DataArray type="Float64" Name="MParticle" NumberOfComponents="3"/>
-0.564462 0.022187 0.0022541
0 0 0
-0.274076 -0.400643 -0.0275836
-0.290386 0.42283 0.0298378
    <DataArray type="Float64" Name="FWall" NumberOfComponents="3"/>
0 0 0
-0.525153 -18.5072 141.843
-14.1685 9.52096 134.343
14.2816 9.79065 134.782
    <DataArray type="Float64" Name="MWall" NumberOfComponents="3"/>
0 0 0
-1.85072 0.0525153 0
0.952096 1.41685 0
0.979065 -1.42816 0
    <DataArray type="Float64" Name="FHydro" NumberOfComponents="3"/>
0 0 0
0 0 0
0 0 0
0 0 0
    <DataArray type="Float64" Name="FSpringP" NumberOfComponents="3"/>
-0.172492 -4.85051 5.87377
0 0 0
-3.1531 2.35365 -2.85615
3.3256 2.49686 -3.01763
    <DataArray type="Float64" Name="FSpringW" NumberOfComponents="3"/>
0 0 0
-0.525153 -18.5072 0
-14.1685 9.52096 0
14.2816 9.79065 0
    <DataArray type="Float64" Name="MRolling" NumberOfComponents="3"/>
-0.450912 -0.164569 0.0163258
-2.7161 0.38838 -0.0200438
1.83939 -2.01738 0.753645
1.84199 2.03097 -0.754581
   </PointData>
   <CellData>
   </CellData>
   <Points>
    <DataArray type="Float64" Name="Points" NumberOfComponents="3"/>
2 1.99984 0.29886
2 2.11784 0.137429
2.10229 1.94098 0.137433
1.89771 1.94098 0.137433
   </Points>
   <Cells>
    <DataArray type="Int64" Name="connectivity" format="ascii">
0
1
2
3
    </DataArray>
    <DataArray type="Int64" Name="offsets" format="ascii">
1
2
3
4
    </DataArray>
    <DataArray type="Int64" Name="types" format="ascii">
1
1
1
1
    </DataArray>
   </Cells>
  </Piece>
 </UnstructuredGrid>
</VTKFile>