<?xml version="1.0"?>
<VTKFile type="UnstructuredGrid" version="0.1" byte_order="LittleEndian" compressor="vtkZLibDataCompressor">
 <UnstructuredGrid GhostLevel="0">
  <Piece NumberOfPoints="4" NumberOfCells="4">
   <PointData>
    <DataArray type="Float64" Name="radius"/>
0.1
0.1
0.1
0.1
    <DataArray type="Float64" Name="mass"/>
10.472
10.472
10.472
10.472
    <DataArray type="Float64" Name="particleIndex"/>
0
1
2
3
    <DataArray type="Float64" Name="clusterIndex"/>
0
1
2
3
    <DataArray type="Float64" Name="v" NumberOfComponents="3"/>
-3.611e-06 -0.000283862 -0.000115194
-4.08102e-06 -0.000240742 4.28927e-06
0.000245719 -9.13506e-05 3.15512e-05
-0.000242081 -7.66876e-05 2.7152e-05
    <DataArray type="Float64" Name="w" NumberOfComponents="3"/>
0.00871899 -0.000287549 -2.57514e-05
0.00288955 -9.45629e-05 -1.50913e-05
0.000488097 0.00226952 -0.000404516
0.000434361 -0.00231557 0.000431099
    <DataArray type="Float64" Name="FParticle" NumberOfComponents="3"/>
0.0545843 -7.81603 96.0552
-0.000558636 23.37 -31.9665
14.3483 -7.74132 -31.8055
-14.4024 -7.81267 -32.2832
    <DataArray type="Float64" Name="FGrav" NumberOfComponents="3"/>
0 0 -102.73
0 0 -102.73
0 0 -102.73
0 0 -102.73
    <DataArray type="Float64" Name="MParticle" NumberOfComponents="3"/>
-0.629697 0.0200981 -0.00208938
0 0 0
-0.310729 -0.469219 -0.0259723
-0.318968 0.489317 0.0238829
    <DataArray type="Float64" Name="FWall" NumberOfComponents="3"/>
0 0 0
-0.501899 -18.3475 141.79
-14.4855 9.57066 134.225
14.3137 9.72205 134.674
    <DataArray type="Float64" Name="MWall" NumberOfComponents="3"/>
0 0 0
-1.83475 0.0501899 0
0.957066 1.44855 0
0.972205 -1.43137 0
    <DataArray type="Float64" Name="FHydro" NumberOfComponents="3"/>
0 0 0
0 0 0
0 0 0
0 0 0
    <DataArray type="Float64" Name="FSpringP" NumberOfComponents="3"/>
-0.168403 -5.33826 6.75716
0 0 0
-3.7113 2.64121 -3.31505
3.8797 2.69704 -3.4421
    <DataArray type="Float64" Name="FSpringW" NumberOfComponents="3"/>
0 0 0
-0.501899 -18.3475 0
-14.4855 9.57066 0
14.3137 9.72205 0
    <DataArray type="Float64" Name="MRolling" NumberOfComponents="3"/>
-0.351421 -0.19495 0.0469702
-2.81503 0.426541 -0.0706593
1.96584 -1.82949 0.91115
1.93472 1.88409 -0.899262
   </PointData>
   <CellData>
   </CellData>
   <Points>
    <DataArray type="Float64" Name="Points" NumberOfComponents="3"/>
2 1.99979 0.298852
2 2.11781 0.137429
2.10232 1.94097 0.137433
1.89768 1.94097 0.137433
   </Points>
   <Cells>
    <DataArray type="Int64" Name="connectivity" format="ascii">
0
1
2
3
    </DataArray>
    <DataArray type="Int64" Name="offsets" format="ascii">
1
2
3
4
    </DataArray>
    <DataArray type="Int64" Name="types" format="ascii">
1
1
1
1
    </DataArray>
   </Cells>
  </Piece>
 </UnstructuredGrid>
</VTKFile>