<?xml version="1.0"?>
<VTKFile type="UnstructuredGrid" version="0.1" byte_order="LittleEndian" compressor="vtkZLibDataCompressor">
 <UnstructuredGrid GhostLevel="0">
  <Piece NumberOfPoints="4" NumberOfCells="4">
   <PointData>
    <DataArray type="Float64" Name="radius"/>
0.1
0.1
0.1
0.1
    <DataArray type="Float64" Name="mass"/>
10.472
10.472
10.472
10.472
    <DataArray type="Float64" Name="particleIndex"/>
0
1
2
3
    <DataArray type="Float64" Name="clusterIndex"/>
0
1
2
3
    <DataArray type="Float64" Name="v" NumberOfComponents="3"/>
-7.94064e-06 -0.000250965 -0.00016226
-5.88734e-06 -0.000245388 2.75515e-05
0.000266185 -0.00011122 5.20975e-05
-0.000272796 -0.000112366 6.05973e-05
    <DataArray type="Float64" Name="w" NumberOfComponents="3"/>
0.00945433 -0.000307341 -0.000123666
0.00334097 -0.000297798 -7.92939e-05
0.00060505 0.00245461 -0.000380274
0.000474848 -0.00239283 0.000384692
    <DataArray type="Float64" Name="FParticle" NumberOfComponents="3"/>
-0.430903 -7.42837 95.2022
-0.000547145 23.3414 -31.9467
14.8734 -8.1767 -31.7346
-14.4419 -7.73633 -31.5209
    <DataArray type="Float64" Name="FGrav" NumberOfComponents="3"/>
0 0 -102.73
0 0 -102.73
0 0 -102.73
0 0 -102.73
    <DataArray type="Float64" Name="MParticle" NumberOfComponents="3"/>
-0.58067 0.0239493 0.00976177
0 0 0
-0.275717 -0.420729 -0.0208187
-0.304953 0.444678 0.0305804
    <DataArray type="Float64" Name="FWall" NumberOfComponents="3"/>
0 0 0
-0.345734 -18.5455 141.87
-14.3365 9.7607 134.708
14.1306 9.62344 134.331
    <DataArray type="Float64" Name="MWall" NumberOfComponents="3"/>
0 0 0
-1.85455 0.0345734 0
0.97607 1.43365 0
0.962344 -1.41306 0
    <DataArray type="Float64" Name="FHydro" NumberOfComponents="3"/>
0 0 0
0 0 0
0 0 0
0 0 0
    <DataArray type="Float64" Name="FSpringP" NumberOfComponents="3"/>
-0.164568 -4.95102 6.13469
0 0 0
-3.3356 2.33255 -2.96304
3.50017 2.61847 -3.17165
    <DataArray type="Float64" Name="FSpringW" NumberOfComponents="3"/>
0 0 0
-0.345734 -18.5455 0
-14.3365 9.7607 0
14.1306 9.62344 0
    <DataArray type="Float64" Name="MRolling" NumberOfComponents="3"/>
-0.417136 -0.176203 0.0151301
-2.7427 0.485095 0.0163501
1.8122 -2.03164 0.813418
1.88863 1.9629 -0.781236
   </PointData>
   <CellData>
   </CellData>
   <Points>
    <DataArray type="Float64" Name="Points" NumberOfComponents="3"/>
2 1.99999 0.298886
2 2.11796 0.137429
2.10218 1.94102 0.137433
1.89782 1.94102 0.137433
   </Points>
   <Cells>
    <DataArray type="Int64" Name="connectivity" format="ascii">
0
1
2
3
    </DataArray>
    <DataArray type="Int64" Name="offsets" format="ascii">
1
2
3
4
    </DataArray>
    <DataArray type="Int64" Name="types" format="ascii">
1
1
1
1
    </DataArray>
   </Cells>
  </Piece>
 </UnstructuredGrid>
</VTKFile>