<?xml version="1.0"?>
<VTKFile type="UnstructuredGrid" version="0.1" byte_order="LittleEndian" compressor="vtkZLibDataCompressor">
 <UnstructuredGrid GhostLevel="0">
  <Piece NumberOfPoints="4" NumberOfCells="4">
   <PointData>
    <DataArray type="Float64" Name="radius"/>
0.1
0.1
0.1
0.1
    <DataArray type="Float64" Name="mass"/>
10.472
10.472
10.472
10.472
    <DataArray type="Float64" Name="particleIndex"/>
0
1
2
3
    <DataArray type="Float64" Name="clusterIndex"/>
0
1
2
3
    <DataArray type="Float64" Name="v" NumberOfComponents="3"/>
-1.33888e-05 -0.000351547 7.78727e-06
-4.97461e-06 -0.000233557 -2.23523e-05
0.000199656 -6.20087e-05 -2.37314e-05
-0.000192645 -4.58758e-05 -4.14587e-05
    <DataArray type="Float64" Name="w" NumberOfComponents="3"/>
0.00847615 -0.000302106 -2.81928e-05
0.00270528 -7.21354e-05 -2.64456e-05
0.000445054 0.0021616 -0.000405889
0.000374756 -0.00222215 0.000449791
    <DataArray type="Float64" Name="FParticle" NumberOfComponents="3"/>
0.0862466 -7.81876 95.9837
-0.000649909 23.2307 -31.7589
14.1782 -7.64821 -31.8833
-14.2638 -7.76376 -32.3415
    <DataArray type="Float64" Name="FGrav" NumberOfComponents="3"/>
0 0 -102.73
0 0 -102.73
0 0 -102.73
0 0 -102.73
    <DataArray type="Float64" Name="MParticle" NumberOfComponents="3"/>
-0.641108 0.0165947 -0.00345082
0 0 0
-0.318534 -0.489119 -0.0243188
-0.322574 0.505714 0.020868
    <DataArray type="Float64" Name="FWall" NumberOfComponents="3"/>
0 0 0
-0.458538 -18.2489 141.79
-14.3761 9.44689 134.323
14.1483 9.57559 134.829
    <DataArray type="Float64" Name="MWall" NumberOfComponents="3"/>
0 0 0
-1.82489 0.0458538 0
0.944689 1.43761 0
0.957559 -1.41483 0
    <DataArray type="Float64" Name="FHydro" NumberOfComponents="3"/>
0 0 0
0 0 0
0 0 0
0 0 0
    <DataArray type="Float64" Name="FSpringP" NumberOfComponents="3"/>
-0.144082 -5.4058 6.97835
0 0 0
-3.87623 2.69543 -3.44075
4.02031 2.71037 -3.53759
    <DataArray type="Float64" Name="FSpringW" NumberOfComponents="3"/>
0 0 0
-0.458538 -18.2489 0
-14.3761 9.44689 0
14.1483 9.57559 0
    <DataArray type="Float64" Name="MRolling" NumberOfComponents="3"/>
-0.329607 -0.190674 0.0594031
-2.83791 0.41128 -0.0863004
2.0404 -1.73288 0.948486
1.99896 1.79444 -0.956765
   </PointData>
   <CellData>
   </CellData>
   <Points>
    <DataArray type="Float64" Name="Points" NumberOfComponents="3"/>
2 1.99962 0.298821
2 2.11767 0.137429
2.10244 1.94093 0.137433
1.89755 1.94093 0.137433
   </Points>
   <Cells>
    <DataArray type="Int64" Name="connectivity" format="ascii">
0
1
2
3
    </DataArray>
    <DataArray type="Int64" Name="offsets" format="ascii">
1
2
3
4
    </DataArray>
    <DataArray type="Int64" Name="types" format="ascii">
1
1
1
1
    </DataArray>
   </Cells>
  </Piece>
 </UnstructuredGrid>
</VTKFile>