<?xml version="1.0"?>
<VTKFile type="UnstructuredGrid" version="0.1" byte_order="LittleEndian" compressor="vtkZLibDataCompressor">
 <UnstructuredGrid GhostLevel="0">
  <Piece NumberOfPoints="4" NumberOfCells="4">
   <PointData>
    <DataArray type="Float64" Name="radius"/>
0.1
0.1
0.1
0.1
    <DataArray type="Float64" Name="mass"/>
10.472
10.472
10.472
10.472
    <DataArray type="Float64" Name="particleIndex"/>
0
1
2
3
    <DataArray type="Float64" Name="clusterIndex"/>
0
1
2
3
    <DataArray type="Float64" Name="v" NumberOfComponents="3"/>
-1.35701e-05 -0.000353621 4.82452e-07
-5.42157e-06 -0.000235207 -2.44462e-05
0.000204026 -6.37195e-05 -2.2991e-05
-0.000196044 -4.74076e-05 -4.1316e-05
    <DataArray type="Float64" Name="w" NumberOfComponents="3"/>
0.00848047 -0.000304061 -2.86796e-05
0.00272065 -7.78363e-05 -2.65319e-05
0.0004543 0.00218455 -0.000403276
0.000383216 -0.00223762 0.000448729
    <DataArray type="Float64" Name="FParticle" NumberOfComponents="3"/>
0.081754 -7.73892 96.0419
-0.00135839 23.1209 -31.5307
14.3479 -7.64134 -32.0324
-14.4283 -7.74066 -32.4788
    <DataArray type="Float64" Name="FGrav" NumberOfComponents="3"/>
0 0 -102.73
0 0 -102.73
0 0 -102.73
0 0 -102.73
    <DataArray type="Float64" Name="MParticle" NumberOfComponents="3"/>
-0.633491 0.0166212 -0.00290644
0 0 0
-0.314378 -0.493006 -0.0232094
-0.319113 0.509627 0.020303
    <DataArray type="Float64" Name="FWall" NumberOfComponents="3"/>
0 0 0
-0.452695 -18.1723 141.523
-14.546 9.43052 134.461
14.3188 9.54253 134.949
    <DataArray type="Float64" Name="MWall" NumberOfComponents="3"/>
0 0 0
-1.81723 0.0452695 0
0.943052 1.4546 0
0.954253 -1.43188 0
    <DataArray type="Float64" Name="FHydro" NumberOfComponents="3"/>
0 0 0
0 0 0
0 0 0
0 0 0
    <DataArray type="Float64" Name="FSpringP" NumberOfComponents="3"/>
-0.142504 -5.33257 7.00495
0 0 0
-3.90814 2.65467 -3.45281
4.05064 2.6779 -3.55214
    <DataArray type="Float64" Name="FSpringW" NumberOfComponents="3"/>
0 0 0
-0.452695 -18.1723 0
-14.546 9.43052 0
14.3188 9.54253 0
    <DataArray type="Float64" Name="MRolling" NumberOfComponents="3"/>
-0.33202 -0.188955 0.0598284
-2.83182 0.410795 -0.0865497
2.0356 -1.74405 0.948684
1.99798 1.79653 -0.964047
   </PointData>
   <CellData>
   </CellData>
   <Points>
    <DataArray type="Float64" Name="Points" NumberOfComponents="3"/>
1.99999 1.99882 0.298683
1.99999 2.11707 0.137429
2.103 1.94073 0.137433
1.89698 1.94075 0.137433
   </Points>
   <Cells>
    <DataArray type="Int64" Name="connectivity" format="ascii">
0
1
2
3
    </DataArray>
    <DataArray type="Int64" Name="offsets" format="ascii">
1
2
3
4
    </DataArray>
    <DataArray type="Int64" Name="types" format="ascii">
1
1
1
1
    </DataArray>
   </Cells>
  </Piece>
 </UnstructuredGrid>
</VTKFile>