<?xml version="1.0"?>
<VTKFile type="UnstructuredGrid" version="0.1" byte_order="LittleEndian" compressor="vtkZLibDataCompressor">
 <UnstructuredGrid GhostLevel="0">
  <Piece NumberOfPoints="4" NumberOfCells="4">
   <PointData>
    <DataArray type="Float64" Name="radius"/>
0.1
0.1
0.1
0.1
    <DataArray type="Float64" Name="mass"/>
10.472
10.472
10.472
10.472
    <DataArray type="Float64" Name="particleIndex"/>
0
1
2
3
    <DataArray type="Float64" Name="clusterIndex"/>
0
1
2
3
    <DataArray type="Float64" Name="v" NumberOfComponents="3"/>
1.05479e-05 -0.000252314 -0.000154688
-9.81147e-07 -0.000246072 2.35097e-05
0.000261234 -0.000106993 4.47697e-05
-0.000275776 -0.000106174 5.91879e-05
    <DataArray type="Float64" Name="w" NumberOfComponents="3"/>
0.00933935 -0.000183942 -3.25829e-05
0.00324199 -0.000139074 -6.28477e-06
0.000538751 0.00241297 -0.000386837
0.000524057 -0.0024286 0.000389564
    <DataArray type="Float64" Name="FParticle" NumberOfComponents="3"/>
-0.0106916 -7.50286 95.2916
-0.000535174 23.3294 -31.9146
14.7116 -7.91333 -31.4247
-14.7003 -7.9132 -31.9523
    <DataArray type="Float64" Name="FGrav" NumberOfComponents="3"/>
0 0 -102.73
0 0 -102.73
0 0 -102.73
0 0 -102.73
    <DataArray type="Float64" Name="MParticle" NumberOfComponents="3"/>
-0.587613 0.0279073 -0.000348977
0 0 0
-0.286061 -0.419947 -0.0281701
-0.301551 0.447854 0.0278211
    <DataArray type="Float64" Name="FWall" NumberOfComponents="3"/>
0 0 0
-0.531125 -18.4729 141.822
-14.3533 9.55638 134.307
14.3273 9.78874 134.742
    <DataArray type="Float64" Name="MWall" NumberOfComponents="3"/>
0 0 0
-1.84729 0.0531125 0
0.955638 1.43533 0
0.978874 -1.43273 0
    <DataArray type="Float64" Name="FHydro" NumberOfComponents="3"/>
0 0 0
0 0 0
0 0 0
0 0 0
    <DataArray type="Float64" Name="FSpringP" NumberOfComponents="3"/>
-0.226331 -5.03005 6.16875
0 0 0
-3.30719 2.45339 -2.99021
3.53352 2.57666 -3.17854
    <DataArray type="Float64" Name="FSpringW" NumberOfComponents="3"/>
0 0 0
-0.531125 -18.4729 0
-14.3533 9.55638 0
14.3273 9.78874 0
    <DataArray type="Float64" Name="MRolling" NumberOfComponents="3"/>
-0.424633 -0.179787 0.0258581
-2.74169 0.41058 -0.039238
1.87913 -1.95437 0.822686
1.85499 2.00331 -0.795905
   </PointData>
   <CellData>
   </CellData>
   <Points>
    <DataArray type="Float64" Name="Points" NumberOfComponents="3"/>
2 1.99983 0.298858
2 2.11783 0.137429
2.10229 1.94098 0.137433
1.89771 1.94098 0.137433
   </Points>
   <Cells>
    <DataArray type="Int64" Name="connectivity" format="ascii">
0
1
2
3
    </DataArray>
    <DataArray type="Int64" Name="offsets" format="ascii">
1
2
3
4
    </DataArray>
    <DataArray type="Int64" Name="types" format="ascii">
1
1
1
1
    </DataArray>
   </Cells>
  </Piece>
 </UnstructuredGrid>
</VTKFile>