<?xml version="1.0"?>
<VTKFile type="UnstructuredGrid" version="0.1" byte_order="LittleEndian" compressor="vtkZLibDataCompressor">
 <UnstructuredGrid GhostLevel="0">
  <Piece NumberOfPoints="4" NumberOfCells="4">
   <PointData>
    <DataArray type="Float64" Name="radius"/>
0.1
0.1
0.1
0.1
    <DataArray type="Float64" Name="mass"/>
10.472
10.472
10.472
10.472
    <DataArray type="Float64" Name="particleIndex"/>
0
1
2
3
    <DataArray type="Float64" Name="clusterIndex"/>
0
1
2
3
    <DataArray type="Float64" Name="v" NumberOfComponents="3"/>
-4.78784e-06 -0.000281425 -0.000123659
-5.0449e-06 -0.0002421 6.45686e-06
0.000249526 -9.33034e-05 3.57405e-05
-0.000246644 -7.87448e-05 3.11811e-05
    <DataArray type="Float64" Name="w" NumberOfComponents="3"/>
0.00873248 -0.000289204 -2.55526e-05
0.00291504 -9.98159e-05 -1.427e-05
0.000492369 0.00228729 -0.000402465
0.000442375 -0.00233121 0.000430086
    <DataArray type="Float64" Name="FParticle" NumberOfComponents="3"/>
0.0563853 -7.74358 96.0446
-0.000906761 23.2612 -31.7557
14.4882 -7.72086 -31.9024
-14.5437 -7.79674 -32.3865
    <DataArray type="Float64" Name="FGrav" NumberOfComponents="3"/>
0 0 -102.73
0 0 -102.73
0 0 -102.73
0 0 -102.73
    <DataArray type="Float64" Name="MParticle" NumberOfComponents="3"/>
-0.623906 0.0204703 -0.00236475
0 0 0
-0.308027 -0.470774 -0.025953
-0.31588 0.491245 0.0235883
    <DataArray type="Float64" Name="FWall" NumberOfComponents="3"/>
0 0 0
-0.496386 -18.2763 141.553
-14.6222 9.54504 134.332
14.4519 9.69815 134.799
    <DataArray type="Float64" Name="MWall" NumberOfComponents="3"/>
0 0 0
-1.82763 0.0496386 0
0.954504 1.46222 0
0.969815 -1.44519 0
    <DataArray type="Float64" Name="FHydro" NumberOfComponents="3"/>
0 0 0
0 0 0
0 0 0
0 0 0
    <DataArray type="Float64" Name="FSpringP" NumberOfComponents="3"/>
-0.172057 -5.28761 6.76442
0 0 0
-3.72197 2.6182 -3.31817
3.89402 2.66941 -3.44625
    <DataArray type="Float64" Name="FSpringW" NumberOfComponents="3"/>
0 0 0
-0.496386 -18.2763 0
-14.6222 9.54504 0
14.4519 9.69815 0
    <DataArray type="Float64" Name="MRolling" NumberOfComponents="3"/>
-0.351975 -0.193371 0.0485178
-2.81107 0.425019 -0.0733105
1.96621 -1.834 0.909739
1.93308 1.88821 -0.903575
   </PointData>
   <CellData>
   </CellData>
   <Points>
    <DataArray type="Float64" Name="Points" NumberOfComponents="3"/>
2 1.99916 0.298742
1.99999 2.11732 0.137429
2.10276 1.94082 0.137433
1.89723 1.94082 0.137433
   </Points>
   <Cells>
    <DataArray type="Int64" Name="connectivity" format="ascii">
0
1
2
3
    </DataArray>
    <DataArray type="Int64" Name="offsets" format="ascii">
1
2
3
4
    </DataArray>
    <DataArray type="Int64" Name="types" format="ascii">
1
1
1
1
    </DataArray>
   </Cells>
  </Piece>
 </UnstructuredGrid>
</VTKFile>