<?xml version="1.0"?>
<VTKFile type="UnstructuredGrid" version="0.1" byte_order="LittleEndian" compressor="vtkZLibDataCompressor">
 <UnstructuredGrid GhostLevel="0">
  <Piece NumberOfPoints="4" NumberOfCells="4">
   <PointData>
    <DataArray type="Float64" Name="radius"/>
0.1
0.1
0.1
0.1
    <DataArray type="Float64" Name="mass"/>
10.472
10.472
10.472
10.472
    <DataArray type="Float64" Name="particleIndex"/>
0
1
2
3
    <DataArray type="Float64" Name="clusterIndex"/>
0
1
2
3
    <DataArray type="Float64" Name="v" NumberOfComponents="3"/>
5.34607e-06 -0.000336506 1.21233e-05
-5.31396e-07 -0.000250934 -4.04758e-06
0.000179378 -5.44513e-05 -3.987e-05
-0.000212236 -8.9162e-05 -1.56642e-05
    <DataArray type="Float64" Name="w" NumberOfComponents="3"/>
0.0094229 -8.65651e-05 0.000114832
0.00317322 8.45104e-05 5.65812e-05
0.00031015 0.00249072 -0.000298508
0.000340181 -0.00260112 0.000296147
    <DataArray type="Float64" Name="FParticle" NumberOfComponents="3"/>
4.77843 -6.28 92.9145
-0.00102241 23.0345 -31.4358
13.5572 -6.36925 -32.7248
-18.3346 -10.3853 -28.7539
    <DataArray type="Float64" Name="FGrav" NumberOfComponents="3"/>
0 0 -102.73
0 0 -102.73
0 0 -102.73
0 0 -102.73
    <DataArray type="Float64" Name="MParticle" NumberOfComponents="3"/>
-0.439789 -0.589502 -0.0674604
0 0 0
-0.439789 -0.589502 -0.0674604
0 0 0
    <DataArray type="Float64" Name="FWall" NumberOfComponents="3"/>
0 0 0
0.523646 -18.2762 141.636
-13.764 9.32621 134.575
13.9821 9.8997 135.071
    <DataArray type="Float64" Name="MWall" NumberOfComponents="3"/>
0 0 0
-1.82762 -0.0523646 0
0.932621 1.3764 0
0.98997 -1.39821 0
    <DataArray type="Float64" Name="FHydro" NumberOfComponents="3"/>
0 0 0
0 0 0
0 0 0
0 0 0
    <DataArray type="Float64" Name="FSpringP" NumberOfComponents="3"/>
4.55834 -3.89427 4.31323
0 0 0
-4.55834 3.89427 -4.31323
0 0 0
    <DataArray type="Float64" Name="FSpringW" NumberOfComponents="3"/>
0 0 0
0.523646 -18.2762 0
-13.764 9.32621 0
13.9821 9.8997 0
    <DataArray type="Float64" Name="MRolling" NumberOfComponents="3"/>
-0.462479 0.14235 -0.039599
-2.70318 -0.345245 -0.0035205
1.90814 -2.05163 0.458407
2.05388 1.93455 -0.459285
   </PointData>
   <CellData>
   </CellData>
   <Points>
    <DataArray type="Float64" Name="Points" NumberOfComponents="3"/>
2 1.99905 0.298724
1.99999 2.11724 0.137429
2.10284 1.94079 0.137433
1.89715 1.9408 0.137432
   </Points>
   <Cells>
    <DataArray type="Int64" Name="connectivity" format="ascii">
0
1
2
3
    </DataArray>
    <DataArray type="Int64" Name="offsets" format="ascii">
1
2
3
4
    </DataArray>
    <DataArray type="Int64" Name="types" format="ascii">
1
1
1
1
    </DataArray>
   </Cells>
  </Piece>
 </UnstructuredGrid>
</VTKFile>