<?xml version="1.0"?>
<VTKFile type="UnstructuredGrid" version="0.1" byte_order="LittleEndian" compressor="vtkZLibDataCompressor">
 <UnstructuredGrid GhostLevel="0">
  <Piece NumberOfPoints="4" NumberOfCells="4">
   <PointData>
    <DataArray type="Float64" Name="radius"/>
0.1
0.1
0.1
0.1
    <DataArray type="Float64" Name="mass"/>
10.472
10.472
10.472
10.472
    <DataArray type="Float64" Name="particleIndex"/>
0
1
2
3
    <DataArray type="Float64" Name="clusterIndex"/>
0
1
2
3
    <DataArray type="Float64" Name="v" NumberOfComponents="3"/>
-4.35785e-06 -0.00029036 -9.81221e-05
-4.17517e-06 -0.000233993 -8.48649e-06
0.000246211 -8.87158e-05 2.03547e-05
-0.000234142 -7.03731e-05 1.23744e-05
    <DataArray type="Float64" Name="w" NumberOfComponents="3"/>
0.00862105 -0.000257698 -3.22303e-05
0.00280933 -8.84792e-05 -1.9539e-05
0.000501052 0.00229026 -0.000404537
0.000431851 -0.00230633 0.000438713
    <DataArray type="Float64" Name="FParticle" NumberOfComponents="3"/>
0.0502362 -7.76695 96.1497
-0.00135891 23.2474 -31.7038
14.5383 -7.73092 -31.9756
-14.5872 -7.74949 -32.4702
    <DataArray type="Float64" Name="FGrav" NumberOfComponents="3"/>
0 0 -102.73
0 0 -102.73
0 0 -102.73
0 0 -102.73
    <DataArray type="Float64" Name="MParticle" NumberOfComponents="3"/>
-0.623809 0.0216417 0.00033709
0 0 0
-0.305581 -0.474653 -0.0241785
-0.318228 0.496295 0.0245156
    <DataArray type="Float64" Name="FWall" NumberOfComponents="3"/>
0 0 0
-0.489635 -18.2599 141.517
-14.7084 9.54776 134.361
14.5324 9.64144 134.808
    <DataArray type="Float64" Name="MWall" NumberOfComponents="3"/>
0 0 0
-1.82599 0.0489635 0
0.954776 1.47084 0
0.964144 -1.45324 0
    <DataArray type="Float64" Name="FHydro" NumberOfComponents="3"/>
0 0 0
0 0 0
0 0 0
0 0 0
    <DataArray type="Float64" Name="FSpringP" NumberOfComponents="3"/>
-0.173569 -5.28122 6.81355
0 0 0
-3.75735 2.58874 -3.33269
3.93092 2.69248 -3.48086
    <DataArray type="Float64" Name="FSpringW" NumberOfComponents="3"/>
0 0 0
-0.489635 -18.2599 0
-14.7084 9.54776 0
14.5324 9.64144 0
    <DataArray type="Float64" Name="MRolling" NumberOfComponents="3"/>
-0.352432 -0.193509 0.0458073
-2.81075 0.424255 -0.0656298
1.9632 -1.83017 0.926368
1.95442 1.85262 -0.935317
   </PointData>
   <CellData>
   </CellData>
   <Points>
    <DataArray type="Float64" Name="Points" NumberOfComponents="3"/>
1.99999 1.99883 0.298684
1.99999 2.11707 0.137429
2.10299 1.94073 0.137433
1.89699 1.94075 0.137433
   </Points>
   <Cells>
    <DataArray type="Int64" Name="connectivity" format="ascii">
0
1
2
3
    </DataArray>
    <DataArray type="Int64" Name="offsets" format="ascii">
1
2
3
4
    </DataArray>
    <DataArray type="Int64" Name="types" format="ascii">
1
1
1
1
    </DataArray>
   </Cells>
  </Piece>
 </UnstructuredGrid>
</VTKFile>