<?xml version="1.0"?>
<VTKFile type="UnstructuredGrid" version="0.1" byte_order="LittleEndian" compressor="vtkZLibDataCompressor">
 <UnstructuredGrid GhostLevel="0">
  <Piece NumberOfPoints="4" NumberOfCells="4">
   <PointData>
    <DataArray type="Float64" Name="radius"/>
0.1
0.1
0.1
0.1
    <DataArray type="Float64" Name="mass"/>
10.472
10.472
10.472
10.472
    <DataArray type="Float64" Name="particleIndex"/>
0
1
2
3
    <DataArray type="Float64" Name="clusterIndex"/>
0
1
2
3
    <DataArray type="Float64" Name="v" NumberOfComponents="3"/>
6.48875e-06 -0.000266528 -0.000164681
-3.37475e-06 -0.000249535 2.58645e-05
0.000267215 -0.000116355 5.88152e-05
-0.000267372 -9.24666e-05 5.58514e-05
    <DataArray type="Float64" Name="w" NumberOfComponents="3"/>
0.00906362 -0.00016985 -2.88163e-05
0.00312842 -0.000134719 -1.25528e-05
0.000536168 0.00239718 -0.000394775
0.000477734 -0.00237247 0.000407793
    <DataArray type="Float64" Name="FParticle" NumberOfComponents="3"/>
-0.0217751 -7.54389 95.7227
-0.00136412 23.1831 -31.6152
14.7365 -7.87252 -31.776
-14.7134 -7.76668 -32.3315
    <DataArray type="Float64" Name="FGrav" NumberOfComponents="3"/>
0 0 -102.73
0 0 -102.73
0 0 -102.73
0 0 -102.73
    <DataArray type="Float64" Name="MParticle" NumberOfComponents="3"/>
-0.600947 0.0305888 0.00465139
0 0 0
-0.28825 -0.448503 -0.0225628
-0.312697 0.479092 0.0272142
    <DataArray type="Float64" Name="FWall" NumberOfComponents="3"/>
0 0 0
-0.539245 -18.2985 141.407
-14.608 9.58342 134.436
14.5745 9.71201 134.871
    <DataArray type="Float64" Name="MWall" NumberOfComponents="3"/>
0 0 0
-1.82985 0.0539245 0
0.958342 1.4608 0
0.971201 -1.45745 0
    <DataArray type="Float64" Name="FHydro" NumberOfComponents="3"/>
0 0 0
0 0 0
0 0 0
0 0 0
    <DataArray type="Float64" Name="FSpringP" NumberOfComponents="3"/>
-0.233185 -5.10241 6.52389
0 0 0
-3.55114 2.44065 -3.14768
3.78432 2.66176 -3.37621
    <DataArray type="Float64" Name="FSpringW" NumberOfComponents="3"/>
0 0 0
-0.539245 -18.2985 0
-14.608 9.58342 0
14.5745 9.71201 0
    <DataArray type="Float64" Name="MRolling" NumberOfComponents="3"/>
-0.384584 -0.192756 0.0191532
-2.77488 0.436463 -0.0245111
1.88555 -1.93515 0.866903
1.91237 1.93338 -0.852768
   </PointData>
   <CellData>
   </CellData>
   <Points>
    <DataArray type="Float64" Name="Points" NumberOfComponents="3"/>
1.99999 1.99882 0.298682
1.99999 2.11707 0.137429
2.103 1.94073 0.137433
1.89698 1.94075 0.137433
   </Points>
   <Cells>
    <DataArray type="Int64" Name="connectivity" format="ascii">
0
1
2
3
    </DataArray>
    <DataArray type="Int64" Name="offsets" format="ascii">
1
2
3
4
    </DataArray>
    <DataArray type="Int64" Name="types" format="ascii">
1
1
1
1
    </DataArray>
   </Cells>
  </Piece>
 </UnstructuredGrid>
</VTKFile>