<?xml version="1.0"?>
<VTKFile type="UnstructuredGrid" version="0.1" byte_order="LittleEndian" compressor="vtkZLibDataCompressor">
 <UnstructuredGrid GhostLevel="0">
  <Piece NumberOfPoints="4" NumberOfCells="4">
   <PointData>
    <DataArray type="Float64" Name="radius"/>
0.1
0.1
0.1
0.1
    <DataArray type="Float64" Name="mass"/>
10.472
10.472
10.472
10.472
    <DataArray type="Float64" Name="particleIndex"/>
0
1
2
3
    <DataArray type="Float64" Name="clusterIndex"/>
0
1
2
3
    <DataArray type="Float64" Name="v" NumberOfComponents="3"/>
-2.56169e-06 5.46204e-06 0.000634769
-2.95552e-06 0.000125864 0.000326207
0.00010461 -6.11119e-05 0.000328312
-0.000104274 -5.82078e-05 0.000332037
    <DataArray type="Float64" Name="w" NumberOfComponents="3"/>
-4.39783e-05 7.95297e-06 1.81178e-05
-0.00218749 -0.000407656 -0.00011485
0.00141053 0.00168622 9.83109e-05
0.000697009 -0.00207535 0.000109055
    <DataArray type="Float64" Name="FParticle" NumberOfComponents="3"/>
-5.14459 0.0076839 101.447
2.40325 16.7583 -33.8037
15.7828 -6.34013 -33.7154
-13.0415 -10.4259 -33.928
    <DataArray type="Float64" Name="FGrav" NumberOfComponents="3"/>
0 0 -102.73
0 0 -102.73
0 0 -102.73
0 0 -102.73
    <DataArray type="Float64" Name="MParticle" NumberOfComponents="3"/>
-0.000651041 0.42631 -0.14782
0.640838 0.194078 0.141775
-0.48258 -0.447881 -0.141682
-0.158909 0.680114 -0.147912
    <DataArray type="Float64" Name="FWall" NumberOfComponents="3"/>
0 0 0
-3.43244 -17.0779 135.59
-16.4937 5.56061 135.583
12.8545 11.52 135.597
    <DataArray type="Float64" Name="MWall" NumberOfComponents="3"/>
0 0 0
-1.70779 0.343244 0
0.556061 1.64937 0
1.152 -1.28545 0
    <DataArray type="Float64" Name="FHydro" NumberOfComponents="3"/>
0 0 0
0 0 0
0 0 0
0 0 0
    <DataArray type="Float64" Name="FSpringP" NumberOfComponents="3"/>
-5.13293 0.0265699 11.4348
2.40346 -5.17465 -3.78025
-3.19863 4.62052 -3.71147
5.92811 0.52756 -3.94306
    <DataArray type="Float64" Name="FSpringW" NumberOfComponents="3"/>
0 0 0
-3.43244 -17.0779 0
-16.4937 5.56061 0
12.8545 11.52 0
    <DataArray type="Float64" Name="MRolling" NumberOfComponents="3"/>
0.000884496 -0.330851 0.0182207
1.04453 2.60041 0.736604
-2.78766 0.431616 -0.660872
1.73733 2.22402 -0.656511
   </PointData>
   <CellData>
   </CellData>
   <Points>
    <DataArray type="Float64" Name="Points" NumberOfComponents="3"/>
2 2.00001 0.298898
2 2.11797 0.137432
2.10215 1.94103 0.137432
1.89785 1.94103 0.137432
   </Points>
   <Cells>
    <DataArray type="Int64" Name="connectivity" format="ascii">
0
1
2
3
    </DataArray>
    <DataArray type="Int64" Name="offsets" format="ascii">
1
2
3
4
    </DataArray>
    <DataArray type="Int64" Name="types" format="ascii">
1
1
1
1
    </DataArray>
   </Cells>
  </Piece>
 </UnstructuredGrid>
</VTKFile>