<?xml version="1.0"?>
<VTKFile type="UnstructuredGrid" version="0.1" byte_order="LittleEndian" compressor="vtkZLibDataCompressor">
 <UnstructuredGrid GhostLevel="0">
  <Piece NumberOfPoints="4" NumberOfCells="4">
   <PointData>
    <DataArray type="Float64" Name="radius"/>
0.1
0.1
0.1
0.1
    <DataArray type="Float64" Name="mass"/>
10.472
10.472
10.472
10.472
    <DataArray type="Float64" Name="particleIndex"/>
0
1
2
3
    <DataArray type="Float64" Name="clusterIndex"/>
0
1
2
3
    <DataArray type="Float64" Name="v" NumberOfComponents="3"/>
-1.25277e-05 -0.000342913 -8.50763e-06
-4.87638e-06 -0.000234012 -2.09916e-05
0.000206082 -6.55313e-05 -1.69976e-05
-0.00019894 -4.92625e-05 -3.36725e-05
    <DataArray type="Float64" Name="w" NumberOfComponents="3"/>
0.00848852 -0.000301468 -2.64993e-05
0.00271991 -7.30158e-05 -2.50757e-05
0.000450874 0.00217679 -0.000405287
0.000383355 -0.0022356 0.000449031
    <DataArray type="Float64" Name="FParticle" NumberOfComponents="3"/>
0.086347 -7.80521 96.0284
-0.000753889 23.2167 -31.7204
14.2441 -7.64937 -31.9256
-14.3297 -7.76215 -32.3824
    <DataArray type="Float64" Name="FGrav" NumberOfComponents="3"/>
0 0 -102.73
0 0 -102.73
0 0 -102.73
0 0 -102.73
    <DataArray type="Float64" Name="MParticle" NumberOfComponents="3"/>
-0.639003 0.0165753 -0.00334008
0 0 0
-0.31742 -0.488437 -0.0245923
-0.321583 0.505012 0.0212522
    <DataArray type="Float64" Name="FWall" NumberOfComponents="3"/>
0 0 0
-0.46197 -18.2326 141.706
-14.4448 9.45336 134.341
14.2236 9.58168 134.838
    <DataArray type="Float64" Name="MWall" NumberOfComponents="3"/>
0 0 0
-1.82326 0.046197 0
0.945336 1.44448 0
0.958168 -1.42236 0
    <DataArray type="Float64" Name="FHydro" NumberOfComponents="3"/>
0 0 0
0 0 0
0 0 0
0 0 0
    <DataArray type="Float64" Name="FSpringP" NumberOfComponents="3"/>
-0.143549 -5.39141 6.96722
0 0 0
-3.86927 2.68747 -3.43502
4.01282 2.70394 -3.5322
    <DataArray type="Float64" Name="FSpringW" NumberOfComponents="3"/>
0 0 0
-0.46197 -18.2326 0
-14.4448 9.45336 0
14.2236 9.58168 0
    <DataArray type="Float64" Name="MRolling" NumberOfComponents="3"/>
-0.330805 -0.190483 0.0593282
-2.83557 0.411162 -0.0867183
2.03456 -1.74183 0.94603
1.99294 1.80157 -0.956627
   </PointData>
   <CellData>
   </CellData>
   <Points>
    <DataArray type="Float64" Name="Points" NumberOfComponents="3"/>
2 1.99942 0.298787
1.99999 2.11752 0.137429
2.10258 1.94088 0.137433
1.89741 1.94088 0.137433
   </Points>
   <Cells>
    <DataArray type="Int64" Name="connectivity" format="ascii">
0
1
2
3
    </DataArray>
    <DataArray type="Int64" Name="offsets" format="ascii">
1
2
3
4
    </DataArray>
    <DataArray type="Int64" Name="types" format="ascii">
1
1
1
1
    </DataArray>
   </Cells>
  </Piece>
 </UnstructuredGrid>
</VTKFile>