<?xml version="1.0"?>
<VTKFile type="UnstructuredGrid" version="0.1" byte_order="LittleEndian" compressor="vtkZLibDataCompressor">
 <UnstructuredGrid GhostLevel="0">
  <Piece NumberOfPoints="4" NumberOfCells="4">
   <PointData>
    <DataArray type="Float64" Name="radius"/>
0.1
0.1
0.1
0.1
    <DataArray type="Float64" Name="mass"/>
10.472
10.472
10.472
10.472
    <DataArray type="Float64" Name="particleIndex"/>
0
1
2
3
    <DataArray type="Float64" Name="clusterIndex"/>
0
1
2
3
    <DataArray type="Float64" Name="v" NumberOfComponents="3"/>
1.31756e-05 -0.000256959 -0.000164049
-1.59214e-06 -0.000249244 2.66053e-05
0.000263382 -0.000112526 4.6325e-05
-0.000281909 -0.000108982 6.20118e-05
    <DataArray type="Float64" Name="w" NumberOfComponents="3"/>
0.00947963 -0.000116074 -3.94237e-05
0.00329973 -0.000158106 -1.52506e-05
0.000556477 0.0024635 -0.000380997
0.00054367 -0.00244795 0.000382704
    <DataArray type="Float64" Name="FParticle" NumberOfComponents="3"/>
-0.0197462 -7.358 95.1856
-0.00112651 23.1868 -31.6367
14.9331 -7.95427 -31.508
-14.9122 -7.87455 -32.0409
    <DataArray type="Float64" Name="FGrav" NumberOfComponents="3"/>
0 0 -102.73
0 0 -102.73
0 0 -102.73
0 0 -102.73
    <DataArray type="Float64" Name="MParticle" NumberOfComponents="3"/>
-0.573179 0.0291928 0.00338727
0 0 0
-0.275709 -0.416806 -0.0254476
-0.29747 0.445998 0.0288349
    <DataArray type="Float64" Name="FWall" NumberOfComponents="3"/>
0 0 0
-0.523713 -18.394 141.532
-14.4566 9.52438 134.475
14.5038 9.74875 134.895
    <DataArray type="Float64" Name="MWall" NumberOfComponents="3"/>
0 0 0
-1.8394 0.0523713 0
0.952438 1.44566 0
0.974875 -1.45038 0
    <DataArray type="Float64" Name="FHydro" NumberOfComponents="3"/>
0 0 0
0 0 0
0 0 0
0 0 0
    <DataArray type="Float64" Name="FSpringP" NumberOfComponents="3"/>
-0.225618 -4.90222 6.10805
0 0 0
-3.2876 2.35463 -2.94727
3.51322 2.54759 -3.16078
    <DataArray type="Float64" Name="FSpringW" NumberOfComponents="3"/>
0 0 0
-0.523713 -18.394 0
-14.4566 9.52438 0
14.5038 9.74875 0
    <DataArray type="Float64" Name="MRolling" NumberOfComponents="3"/>
-0.437878 -0.173175 0.0133796
-2.72411 0.406429 -0.0134332
1.84843 -1.9926 0.80973
1.8522 2.01269 -0.791351
   </PointData>
   <CellData>
   </CellData>
   <Points>
    <DataArray type="Float64" Name="Points" NumberOfComponents="3"/>
2 1.99898 0.298711
1.99999 2.11719 0.137429
2.10289 1.94077 0.137433
1.8971 1.94078 0.137433
   </Points>
   <Cells>
    <DataArray type="Int64" Name="connectivity" format="ascii">
0
1
2
3
    </DataArray>
    <DataArray type="Int64" Name="offsets" format="ascii">
1
2
3
4
    </DataArray>
    <DataArray type="Int64" Name="types" format="ascii">
1
1
1
1
    </DataArray>
   </Cells>
  </Piece>
 </UnstructuredGrid>
</VTKFile>