<?xml version="1.0"?>
<VTKFile type="UnstructuredGrid" version="0.1" byte_order="LittleEndian" compressor="vtkZLibDataCompressor">
 <UnstructuredGrid GhostLevel="0">
  <Piece NumberOfPoints="4" NumberOfCells="4">
   <PointData>
    <DataArray type="Float64" Name="radius"/>
0.1
0.1
0.1
0.1
    <DataArray type="Float64" Name="mass"/>
10.472
10.472
10.472
10.472
    <DataArray type="Float64" Name="particleIndex"/>
0
1
2
3
    <DataArray type="Float64" Name="clusterIndex"/>
0
1
2
3
    <DataArray type="Float64" Name="v" NumberOfComponents="3"/>
-1.28627e-05 -0.000381514 5.78673e-05
-5.3253e-06 -0.000237236 -2.05547e-05
0.000176075 -4.74462e-05 -4.80511e-05
-0.000175313 -4.27833e-05 -6.09222e-05
    <DataArray type="Float64" Name="w" NumberOfComponents="3"/>
0.00847265 -0.000309862 1.27713e-05
0.00278068 -7.75919e-05 -3.0691e-05
0.000416599 0.00210946 -0.00040485
0.000213389 -0.00230092 0.000459085
    <DataArray type="Float64" Name="FParticle" NumberOfComponents="3"/>
-0.172941 -7.98578 95.99
-0.000805974 23.077 -31.5181
14.171 -7.50529 -31.9168
-13.9972 -7.58591 -32.5552
    <DataArray type="Float64" Name="FGrav" NumberOfComponents="3"/>
0 0 -102.73
0 0 -102.73
0 0 -102.73
0 0 -102.73
    <DataArray type="Float64" Name="MParticle" NumberOfComponents="3"/>
-0.666938 0.0468479 -0.00928661
0 0 0
-0.327455 -0.495334 -0.0289107
-0.339482 0.542182 0.0196241
    <DataArray type="Float64" Name="FWall" NumberOfComponents="3"/>
0 0 0
-0.414711 -18.2004 141.708
-14.3475 9.36296 134.481
13.8046 9.56924 135.008
    <DataArray type="Float64" Name="MWall" NumberOfComponents="3"/>
0 0 0
-1.82004 0.0414711 0
0.936296 1.43475 0
0.956924 -1.38046 0
    <DataArray type="Float64" Name="FHydro" NumberOfComponents="3"/>
0 0 0
0 0 0
0 0 0
0 0 0
    <DataArray type="Float64" Name="FSpringP" NumberOfComponents="3"/>
-0.405146 -5.63015 7.27637
0 0 0
-3.91191 2.79039 -3.50036
4.31706 2.83976 -3.77601
    <DataArray type="Float64" Name="FSpringW" NumberOfComponents="3"/>
0 0 0
-0.414711 -18.2004 0
-14.3475 9.36296 0
13.8046 9.56924 0
    <DataArray type="Float64" Name="MRolling" NumberOfComponents="3"/>
-0.325703 -0.186565 0.0777887
-2.84059 0.383752 -0.132006
2.08956 -1.68134 0.947842
1.95228 1.90897 -0.830884
   </PointData>
   <CellData>
   </CellData>
   <Points>
    <DataArray type="Float64" Name="Points" NumberOfComponents="3"/>
2 1.9993 0.298767
1.99999 2.11743 0.137429
2.10266 1.94085 0.137433
1.89733 1.94086 0.137433
   </Points>
   <Cells>
    <DataArray type="Int64" Name="connectivity" format="ascii">
0
1
2
3
    </DataArray>
    <DataArray type="Int64" Name="offsets" format="ascii">
1
2
3
4
    </DataArray>
    <DataArray type="Int64" Name="types" format="ascii">
1
1
1
1
    </DataArray>
   </Cells>
  </Piece>
 </UnstructuredGrid>
</VTKFile>