<?xml version="1.0"?>
<VTKFile type="UnstructuredGrid" version="0.1" byte_order="LittleEndian" compressor="vtkZLibDataCompressor">
 <UnstructuredGrid GhostLevel="0">
  <Piece NumberOfPoints="4" NumberOfCells="4">
   <PointData>
    <DataArray type="Float64" Name="radius"/>
0.1
0.1
0.1
0.1
    <DataArray type="Float64" Name="mass"/>
10.472
10.472
10.472
10.472
    <DataArray type="Float64" Name="particleIndex"/>
0
1
2
3
    <DataArray type="Float64" Name="clusterIndex"/>
0
1
2
3
    <DataArray type="Float64" Name="v" NumberOfComponents="3"/>
-1.24648e-05 -0.000373489 5.29772e-05
-6.3435e-06 -0.000236097 -2.18489e-05
0.00018085 -5.13861e-05 -4.51589e-05
-0.000178624 -4.28572e-05 -6.06302e-05
    <DataArray type="Float64" Name="w" NumberOfComponents="3"/>
0.00845655 -0.000300189 2.77079e-05
0.00279438 -8.73737e-05 -2.77407e-05
0.000432279 0.00212813 -0.000403329
0.000133623 -0.00232812 0.000460992
    <DataArray type="Float64" Name="FParticle" NumberOfComponents="3"/>
-0.194489 -7.9618 96.0387
-0.00112263 23.0533 -31.4541
14.2412 -7.53031 -31.9662
-14.0456 -7.56114 -32.6183
    <DataArray type="Float64" Name="FGrav" NumberOfComponents="3"/>
0 0 -102.73
0 0 -102.73
0 0 -102.73
0 0 -102.73
    <DataArray type="Float64" Name="MParticle" NumberOfComponents="3"/>
-0.662725 0.0494189 -0.00738232
0 0 0
-0.323208 -0.496228 -0.0270951
-0.339516 0.545646 0.0197128
    <DataArray type="Float64" Name="FWall" NumberOfComponents="3"/>
0 0 0
-0.408928 -18.2186 141.625
-14.4247 9.39822 134.502
13.877 9.62696 135.056
    <DataArray type="Float64" Name="MWall" NumberOfComponents="3"/>
0 0 0
-1.82186 0.0408928 0
0.939822 1.44247 0
0.962696 -1.3877 0
    <DataArray type="Float64" Name="FHydro" NumberOfComponents="3"/>
0 0 0
0 0 0
0 0 0
0 0 0
    <DataArray type="Float64" Name="FSpringP" NumberOfComponents="3"/>
-0.420098 -5.58596 7.29016
0 0 0
-3.92336 2.7462 -3.49422
4.34346 2.83976 -3.79594
    <DataArray type="Float64" Name="FSpringW" NumberOfComponents="3"/>
0 0 0
-0.408928 -18.2186 0
-14.4247 9.39822 0
13.877 9.62696 0
    <DataArray type="Float64" Name="MRolling" NumberOfComponents="3"/>
-0.30472 -0.189938 0.0572337
-2.86021 0.393912 -0.108301
2.07628 -1.69957 0.945882
1.9907 1.89271 -0.784699
   </PointData>
   <CellData>
   </CellData>
   <Points>
    <DataArray type="Float64" Name="Points" NumberOfComponents="3"/>
2 1.99898 0.298711
1.99999 2.11719 0.137429
2.10289 1.94077 0.137433
1.8971 1.94078 0.137433
   </Points>
   <Cells>
    <DataArray type="Int64" Name="connectivity" format="ascii">
0
1
2
3
    </DataArray>
    <DataArray type="Int64" Name="offsets" format="ascii">
1
2
3
4
    </DataArray>
    <DataArray type="Int64" Name="types" format="ascii">
1
1
1
1
    </DataArray>
   </Cells>
  </Piece>
 </UnstructuredGrid>
</VTKFile>