<?xml version="1.0"?>
<VTKFile type="UnstructuredGrid" version="0.1" byte_order="LittleEndian" compressor="vtkZLibDataCompressor">
 <UnstructuredGrid GhostLevel="0">
  <Piece NumberOfPoints="22" NumberOfCells="22">
   <PointData>
    <DataArray type="Float64" Name="Elongation" NumberOfComponents="3"/>
1.0027e-05 -2.79532e-06 2.31877e-07
1.21902e-06 -2.53816e-06 9.7698e-09
-8.0608e-06 2.34697e-06 5.05658e-09
9.56221e-06 -2.91854e-08 -6.12919e-08
-6.98644e-06 -5.50911e-08 5.22709e-08
-3.24649e-06 3.22235e-07 1.95626e-08
1.77416e-07 1.92987e-08 -6.71049e-10
1.65023e-06 -9.67512e-08 -2.54039e-09
-2.0646e-06 5.06067e-08 7.85526e-10
1.43285e-06 -1.32429e-08 -1.85254e-11
3.35026e-06 0.000191504 0.000137
-0.000163134 8.63146e-05 -0.000131977
0.000147968 7.31511e-05 -0.000117922
1.93897e-05 8.70442e-06 -3.77793e-07
-3.80062e-05 -5.82919e-06 1.2206e-06
-2.47017e-05 4.75317e-06 6.02369e-07
-6.4137e-06 -5.30088e-06 -5.69767e-08
2.43757e-05 -2.7723e-07 6.15333e-07
-2.17207e-05 4.97078e-06 -6.48861e-07
3.5885e-06 0.000214076 0
0.000153618 -9.57947e-05 0
-0.000167881 -0.000111896 0
    <DataArray type="Float64" Name="norm"/>
1.04119e-05
2.81574e-06
8.39553e-06
9.56245e-06
6.98685e-06
3.2625e-06
1.78463e-07
1.65307e-06
2.06522e-06
1.43291e-06
0.000235487
0.000226894
0.000202858
2.12572e-05
3.847e-05
2.5162e-05
8.32095e-06
2.43851e-05
2.22917e-05
0.000214106
0.000181039
0.000201754
   </PointData>
   <CellData>
   </CellData>
   <Points>
    <DataArray type="Float64" Name="Points" NumberOfComponents="3"/>
1.99968 1.99971 1.58983
1.99642 1.99994 1.78879
1.9954 1.99971 1.98788
1.99607 1.99975 2.18708
1.99745 2.00003 2.38639
1.9988 2.00013 2.58579
1.99977 2.0001 2.78531
2.00031 2.00009 2.98494
2.0005 2.00007 3.18467
2.00054 2.00003 3.38451
1.99966 2.05861 0.218215
2.04897 1.97154 0.218218
1.94891 1.97081 0.218237
2.00062 2.00081 0.398432
2.00564 2.00107 0.59673
2.01112 2.00055 0.79512
2.01304 1.99936 0.993662
2.01014 1.99865 1.1923
2.00476 1.99894 1.39101
2.00055 2.11659 0.0996379
2.09918 1.94245 0.0996422
1.89905 1.94101 0.0996818
   </Points>
   <Cells>
    <DataArray type="Int64" Name="connectivity" format="ascii">
0
1
2
3
4
5
6
7
8
9
10
11
12
13
14
15
16
17
18
19
20
21
    </DataArray>
    <DataArray type="Int64" Name="offsets" format="ascii">
1
2
3
4
5
6
7
8
9
10
11
12
13
14
15
16
17
18
19
20
21
22
    </DataArray>
    <DataArray type="Int64" Name="types" format="ascii">
1
1
1
1
1
1
1
1
1
1
1
1
1
1
1
1
1
1
1
1
1
1
    </DataArray>
   </Cells>
  </Piece>
 </UnstructuredGrid>
</VTKFile>