<?xml version="1.0"?>
<VTKFile type="UnstructuredGrid" version="0.1" byte_order="LittleEndian" compressor="vtkZLibDataCompressor">
 <UnstructuredGrid GhostLevel="0">
  <Piece NumberOfPoints="22" NumberOfCells="22">
   <PointData>
    <DataArray type="Float64" Name="Elongation" NumberOfComponents="3"/>
6.5892e-06 -2.82081e-06 1.85387e-07
1.60265e-06 -1.4076e-06 1.92289e-08
-5.9357e-06 1.4122e-06 2.79733e-09
7.34173e-06 1.25318e-07 -5.42441e-08
-5.84299e-06 7.26491e-09 5.15043e-08
-3.14638e-06 4.01315e-07 2.30148e-08
5.06471e-07 -1.20398e-07 -2.42377e-09
1.36467e-06 -5.93505e-08 -2.89228e-09
-1.96541e-06 1.05163e-07 1.39633e-09
1.45342e-06 -9.41612e-08 -3.13865e-10
7.36718e-06 0.000150244 0.000107483
-0.00019295 0.000105087 -0.000157202
0.000102748 6.08933e-05 -8.55528e-05
1.29515e-05 1.17715e-05 -3.00996e-07
-3.16798e-05 -7.41681e-06 1.17126e-06
-2.11479e-05 3.63179e-06 6.00626e-07
-6.00708e-06 -5.52385e-06 -6.28293e-08
2.09138e-05 1.10209e-06 6.21163e-07
-1.69292e-05 3.80793e-06 -5.88751e-07
-2.44254e-06 0.000185317 0
0.00013662 -8.29335e-05 0
-0.000152155 -9.03391e-05 0
    <DataArray type="Float64" Name="norm"/>
7.17e-06
2.13312e-06
6.10138e-06
7.34299e-06
5.84322e-06
3.17196e-06
5.2059e-07
1.36597e-06
1.96822e-06
1.45646e-06
0.000184879
0.000270158
0.000146917
1.75043e-05
3.25575e-05
2.14659e-05
8.161e-06
2.09521e-05
1.73621e-05
0.000185333
0.000159822
0.000176953
   </PointData>
   <CellData>
   </CellData>
   <Points>
    <DataArray type="Float64" Name="Points" NumberOfComponents="3"/>
1.99961 1.99954 1.59177
1.99572 1.99988 1.79096
1.99447 1.9997 1.99027
1.99523 1.99978 2.18967
1.99685 2.00007 2.38915
1.99845 2.00017 2.58871
1.99965 2.00013 2.78836
2.00034 2.00011 2.98808
2.00062 2.00007 3.18789
2.00071 2.00003 3.38777
1.99958 2.05862 0.218314
2.04892 1.97153 0.218324
1.94882 1.97081 0.218335
2.00081 2.00082 0.398735
2.00659 2.0011 0.597326
2.01296 2.00055 0.795999
2.01525 1.99925 0.994832
2.01189 1.9984 1.19375
2.00559 1.99867 1.39271
2.00049 2.11662 0.0996848
2.09916 1.94243 0.0997064
1.89896 1.94098 0.0997284
   </Points>
   <Cells>
    <DataArray type="Int64" Name="connectivity" format="ascii">
0
1
2
3
4
5
6
7
8
9
10
11
12
13
14
15
16
17
18
19
20
21
    </DataArray>
    <DataArray type="Int64" Name="offsets" format="ascii">
1
2
3
4
5
6
7
8
9
10
11
12
13
14
15
16
17
18
19
20
21
22
    </DataArray>
    <DataArray type="Int64" Name="types" format="ascii">
1
1
1
1
1
1
1
1
1
1
1
1
1
1
1
1
1
1
1
1
1
1
    </DataArray>
   </Cells>
  </Piece>
 </UnstructuredGrid>
</VTKFile>