<?xml version="1.0"?>
<VTKFile type="UnstructuredGrid" version="0.1" byte_order="LittleEndian" compressor="vtkZLibDataCompressor">
 <UnstructuredGrid GhostLevel="0">
  <Piece NumberOfPoints="22" NumberOfCells="22">
   <PointData>
    <DataArray type="Float64" Name="Elongation" NumberOfComponents="3"/>
6.49932e-06 -3.53303e-06 9.15566e-08
2.06572e-06 -3.60432e-06 5.20224e-09
-6.99824e-06 2.52256e-06 7.96718e-09
6.85589e-06 1.55649e-06 -2.89377e-08
-3.53781e-06 -8.57545e-07 1.51434e-08
-6.89755e-07 6.47261e-07 2.17603e-09
-4.21344e-07 1.17906e-07 7.91437e-10
8.9336e-07 1.49668e-08 -5.40383e-10
-7.00529e-07 -3.72465e-07 3.31503e-11
3.71134e-07 -1.6184e-07 -2.35361e-11
2.72789e-06 0.000252527 0.000180876
-0.000206494 0.00011378 -0.000168852
0.000205029 0.000113099 -0.00016771
9.14526e-06 3.13102e-06 -1.07286e-07
-3.00117e-05 -2.03557e-06 6.23061e-07
-2.28714e-05 6.19354e-06 3.7916e-07
-6.26385e-06 -4.83608e-06 -3.68931e-08
2.17972e-05 -1.37527e-06 3.53595e-07
-1.6446e-05 6.60379e-06 -3.09393e-07
4.20904e-06 0.000258032 0
0.000199783 -0.000120938 0
-0.000218416 -0.000137068 0
    <DataArray type="Float64" Name="norm"/>
7.39809e-06
4.15432e-06
7.439e-06
7.03042e-06
3.64029e-06
9.45893e-07
4.3753e-07
8.93486e-07
7.93392e-07
4.04886e-07
0.000310634
0.000289994
0.000288019
9.66699e-06
3.00871e-05
2.36982e-05
7.91359e-06
2.18434e-05
1.77251e-05
0.000258066
0.000233537
0.000257863
   </PointData>
   <CellData>
   </CellData>
   <Points>
    <DataArray type="Float64" Name="Points" NumberOfComponents="3"/>
1.99987 2.00005 1.58621
1.998 2.00006 1.78474
1.99748 1.99974 1.98342
1.99794 1.99974 2.18224
1.99873 1.99998 2.38122
1.99943 2.00007 2.58034
1.99991 2.00005 2.77963
2.00016 2.00005 2.97907
2.00023 2.00004 3.17867
2.00025 2.00002 3.37843
1.99982 2.05846 0.21802
2.04924 1.97144 0.218019
1.94915 1.97081 0.218026
2.00014 2.00058 0.397849
2.00332 2.00071 0.595604
2.0069 2.00031 0.793466
2.00813 1.99952 0.991468
2.00622 1.99916 1.18959
2.00289 1.9995 1.38783
2.00062 2.11645 0.0995468
2.09945 1.94241 0.0995454
1.89929 1.94115 0.0995599
   </Points>
   <Cells>
    <DataArray type="Int64" Name="connectivity" format="ascii">
0
1
2
3
4
5
6
7
8
9
10
11
12
13
14
15
16
17
18
19
20
21
    </DataArray>
    <DataArray type="Int64" Name="offsets" format="ascii">
1
2
3
4
5
6
7
8
9
10
11
12
13
14
15
16
17
18
19
20
21
22
    </DataArray>
    <DataArray type="Int64" Name="types" format="ascii">
1
1
1
1
1
1
1
1
1
1
1
1
1
1
1
1
1
1
1
1
1
1
    </DataArray>
   </Cells>
  </Piece>
 </UnstructuredGrid>
</VTKFile>