<?xml version="1.0"?>
<VTKFile type="UnstructuredGrid" version="0.1" byte_order="LittleEndian" compressor="vtkZLibDataCompressor">
 <UnstructuredGrid GhostLevel="0">
  <Piece NumberOfPoints="20" NumberOfCells="20">
   <PointData>
    <DataArray type="Float64" Name="radius"/>
0.1
0.1
0.1
0.1
0.1
0.1
0.1
0.1
0.1
0.1
0.1
0.1
0.1
0.1
0.1
0.1
0.1
0.1
0.1
0.1
    <DataArray type="Float64" Name="mass"/>
10.472
10.472
10.472
10.472
10.472
10.472
10.472
10.472
10.472
10.472
10.472
10.472
10.472
10.472
10.472
10.472
10.472
10.472
10.472
10.472
    <DataArray type="Float64" Name="particleIndex"/>
0
1
2
3
4
5
6
7
8
9
10
11
12
13
14
15
16
17
18
19
    <DataArray type="Float64" Name="clusterIndex"/>
0
1
2
3
4
5
6
7
8
9
10
11
12
13
14
15
16
17
18
19
    <DataArray type="Float64" Name="v" NumberOfComponents="3"/>
-0.00372735 0.00206679 -0.00178012
0.00122927 -0.00303278 0.000426599
-0.00412139 0.00141891 -0.00252115
-0.0082049 0.00172937 -0.00719608
0.0570971 0.00100688 -0.0237128
0.492156 -0.0235372 -0.173428
1.1552 -0.0702519 -0.480446
1.08339 -0.0813866 -0.476228
0.370413 -0.0480933 -0.773367
-0.262559 -0.0131395 -0.913798
-0.510242 0.00892699 -0.924016
-0.391183 0.0101077 -0.895976
-0.251968 0.00832286 -0.878149
-0.114386 0.00656137 -0.863774
-0.0139626 0.0053531 -0.849074
0.0224496 0.00435994 -0.833349
0.028243 0.0030484 -0.81971
0.0314055 0.00173149 -0.809294
0.0332529 0.000423259 -0.802271
0.0346231 -0.0008783 -0.798739
    <DataArray type="Float64" Name="w" NumberOfComponents="3"/>
-0.00697697 -0.0382677 -0.0205298
0.0295607 0.0165768 0.00512558
-0.0273887 -0.0327616 0.0151166
0.00857514 0.0045685 -0.0140712
-0.00526609 0.670807 0.0129186
0.281014 3.91474 0.0493349
0.273093 3.38979 0.0402118
-0.162453 -4.10275 -0.0520303
-0.143566 -3.51872 -0.0414818
-0.191749 -2.96928 -0.0446784
-0.0192003 0.505057 -0.0153311
0.00884333 0.695339 -0.0110273
0.00869839 0.694657 -0.0109904
0.00816573 0.672105 -0.0104539
0.00324751 0.322544 -0.00514592
0.00644511 0.0355804 -0.00174093
0.00654385 0.0190936 -0.00154733
0.00650927 0.010584 -0.00144577
0.00647515 0.00643695 -0.00139481
0.00647383 0.00626549 -0.00139226
    <DataArray type="Float64" Name="FParticle" NumberOfComponents="3"/>
1.80112 111.469 -155.228
56.3986 -64.0225 -70.8927
-30.5047 -107.642 -239.391
-55.4623 18.4908 43.2541
-34.0561 27.4289 100.834
-1.09404 12.2421 115.172
46.5492 2.43484 101.597
16.3681 -0.400707 104.655
0 0 0
0 0 0
0 0 0
0 0 0
0 0 0
0 0 0
0 0 0
0 0 0
0 0 0
0 0 0
0 0 0
0 0 0
    <DataArray type="Float64" Name="FGrav" NumberOfComponents="3"/>
0 0 -102.73
0 0 -102.73
0 0 -102.73
0 0 -102.73
0 0 -102.73
0 0 -102.73
0 0 -102.73
0 0 -102.73
0 0 -102.73
0 0 -102.73
0 0 -102.73
0 0 -102.73
0 0 -102.73
0 0 -102.73
0 0 -102.73
0 0 -102.73
0 0 -102.73
0 0 -102.73
0 0 -102.73
0 0 -102.73
    <DataArray type="Float64" Name="MParticle" NumberOfComponents="3"/>
0 0 0
3.13807 0.985975 1.60607
1.57352 9.49227 -4.46872
8.86456 11.9567 -3.28176
5.91005 5.46751 -0.934249
2.69062 6.83326 -0.827963
1.06645 0.914254 -0.341004
0.132913 -1.92992 -0.0281771
0 0 0
0 0 0
0 0 0
0 0 0
0 0 0
0 0 0
0 0 0
0 0 0
0 0 0
0 0 0
0 0 0
0 0 0
    <DataArray type="Float64" Name="FWall" NumberOfComponents="3"/>
7.79809 -82.2441 285.521
-22.7547 38.4614 193.142
51.9515 91.8124 334.499
0 0 0
0 0 0
0 0 0
0 0 0
0 0 0
0 0 0
0 0 0
0 0 0
0 0 0
0 0 0
0 0 0
0 0 0
0 0 0
0 0 0
0 0 0
0 0 0
0 0 0
    <DataArray type="Float64" Name="MWall" NumberOfComponents="3"/>
-8.22441 -0.779809 0
3.84614 2.27547 0
9.18124 -5.19515 0
0 0 0
0 0 0
0 0 0
0 0 0
0 0 0
0 0 0
0 0 0
0 0 0
0 0 0
0 0 0
0 0 0
0 0 0
0 0 0
0 0 0
0 0 0
0 0 0
0 0 0
    <DataArray type="Float64" Name="FHydro" NumberOfComponents="3"/>
0 0 0
0 0 0
0 0 0
0 0 0
0 0 0
0 0 0
0 0 0
0 0 0
0 0 0
0 0 0
0 0 0
0 0 0
0 0 0
0 0 0
0 0 0
0 0 0
0 0 0
0 0 0
0 0 0
0 0 0
    <DataArray type="Float64" Name="FSpringP" NumberOfComponents="3"/>
0 0 0
3.33918 -33.6108 14.1095
90.515 -35.131 -42.7518
-79.145 27.0011 27.154
23.1865 23.4384 -10.9814
-12.1554 8.51745 0.322219
-45.0338 8.46429 11.5835
19.2936 1.32051 0.56408
0 0 0
0 0 0
0 0 0
0 0 0
0 0 0
0 0 0
0 0 0
0 0 0
0 0 0
0 0 0
0 0 0
0 0 0
    <DataArray type="Float64" Name="FSpringW" NumberOfComponents="3"/>
7.79809 -82.2441 0
-22.7547 38.4614 0
51.9515 91.8124 0
0 0 0
0 0 0
0 0 0
0 0 0
0 0 0
0 0 0
0 0 0
0 0 0
0 0 0
0 0 0
0 0 0
0 0 0
0 0 0
0 0 0
0 0 0
0 0 0
0 0 0
    <DataArray type="Float64" Name="MRolling" NumberOfComponents="3"/>
-1.36037 4.81517 3.61952
-1.84545 -3.93177 0.399838
5.88809 3.67909 -3.48763
0.498713 2.179 0.493448
0.0672441 -0.495772 -0.0409213
-0.152216 -2.68374 -0.0418145
-0.0276631 0.547574 0.0175096
0.0300151 0.519825 0.00649214
0 0 0
0 0 0
0 0 0
0 0 0
0 0 0
0 0 0
0 0 0
0 0 0
0 0 0
0 0 0
0 0 0
0 0 0
   </PointData>
   <CellData>
   </CellData>
   <Points>
    <DataArray type="Float64" Name="Points" NumberOfComponents="3"/>
1.99939 2.117 0.137362
2.09879 1.9424 0.137402
1.8976 1.94059 0.13734
1.99751 2.00045 0.299666
2.01756 2.00043 0.498277
2.07889 1.99796 0.68832
2.16185 1.99071 0.869936
2.15623 1.9874 1.0697
2.06543 1.99063 1.25283
1.97817 1.99596 1.43798
1.93312 2.0001 1.63482
1.93792 2.00074 1.83628
1.95583 2.00051 2.03693
1.97535 2.00085 2.23729
1.99115 2.00114 2.43778
1.99942 2.00102 2.63849
2.00298 2.00077 2.83918
2.00501 2.0005 3.03971
2.00618 2.00018 3.24007
2.00703 1.99986 3.44025
   </Points>
   <Cells>
    <DataArray type="Int64" Name="connectivity" format="ascii">
0
1
2
3
4
5
6
7
8
9
10
11
12
13
14
15
16
17
18
19
    </DataArray>
    <DataArray type="Int64" Name="offsets" format="ascii">
1
2
3
4
5
6
7
8
9
10
11
12
13
14
15
16
17
18
19
20
    </DataArray>
    <DataArray type="Int64" Name="types" format="ascii">
1
1
1
1
1
1
1
1
1
1
1
1
1
1
1
1
1
1
1
1
    </DataArray>
   </Cells>
  </Piece>
 </UnstructuredGrid>
</VTKFile>