<?xml version="1.0"?>
<VTKFile type="UnstructuredGrid" version="0.1" byte_order="LittleEndian" compressor="vtkZLibDataCompressor">
 <UnstructuredGrid GhostLevel="0">
  <Piece NumberOfPoints="20" NumberOfCells="20">
   <PointData>
    <DataArray type="Float64" Name="radius"/>
0.1
0.1
0.1
0.1
0.1
0.1
0.1
0.1
0.1
0.1
0.1
0.1
0.1
0.1
0.1
0.1
0.1
0.1
0.1
0.1
    <DataArray type="Float64" Name="mass"/>
10.472
10.472
10.472
10.472
10.472
10.472
10.472
10.472
10.472
10.472
10.472
10.472
10.472
10.472
10.472
10.472
10.472
10.472
10.472
10.472
    <DataArray type="Float64" Name="particleIndex"/>
0
1
2
3
4
5
6
7
8
9
10
11
12
13
14
15
16
17
18
19
    <DataArray type="Float64" Name="clusterIndex"/>
0
1
2
3
4
5
6
7
8
9
10
11
12
13
14
15
16
17
18
19
    <DataArray type="Float64" Name="v" NumberOfComponents="3"/>
-0.00181336 0.00148335 4.40246e-06
0.00168246 -0.000818091 4.7265e-05
-0.00294833 4.46179e-06 -1.20607e-05
-0.000590817 -0.000474426 -0.00141964
0.176358 -0.000860545 -0.0390471
0.753195 -0.0332137 -1.72048
1.31724 -0.0777643 -2.78628
1.13595 -0.0888748 -2.80231
0.370396 -0.0480911 -3.32387
-0.262546 -0.0131389 -3.4643
-0.510218 0.00892657 -3.47451
-0.391165 0.0101072 -3.44647
-0.251956 0.00832247 -3.42865
-0.114381 0.00656106 -3.41427
-0.0139619 0.00535285 -3.39957
0.0224485 0.00435973 -3.38385
0.0282417 0.00304825 -3.37021
0.031404 0.00173141 -3.3598
0.0332513 0.00042324 -3.35277
0.0346215 -0.000878258 -3.34924
    <DataArray type="Float64" Name="w" NumberOfComponents="3"/>
-0.0151405 -0.0155097 -0.00615515
0.00689931 0.0191542 -0.000369485
0.00189869 -0.0283642 0.00511081
0.00587193 0.0589321 -0.000469445
-0.000388364 1.75314 -0.00018313
0.486849 8.75202 0.0146542
0.357125 3.63228 -0.0250416
-0.231686 -5.37897 -0.0815427
-0.143544 -3.51817 -0.0414753
-0.191719 -2.96882 -0.0446715
-0.0191973 0.504978 -0.0153287
0.00884195 0.695231 -0.0110256
0.00869703 0.694549 -0.0109886
0.00816446 0.672001 -0.0104522
0.003247 0.322493 -0.00514512
0.00644411 0.0355748 -0.00174065
0.00654283 0.0190906 -0.00154709
0.00650826 0.0105824 -0.00144554
0.00647414 0.00643594 -0.00139459
0.00647282 0.00626451 -0.00139205
    <DataArray type="Float64" Name="FParticle" NumberOfComponents="3"/>
-28.1707 37.3738 -64.6713
34.2069 -19.5984 -54.5068
-50.508 2.4642 -68.0884
16.9454 -11.2133 92.6695
27.5265 -9.02628 94.5969
0 0 0
0 0 0
0 0 0
0 0 0
0 0 0
0 0 0
0 0 0
0 0 0
0 0 0
0 0 0
0 0 0
0 0 0
0 0 0
0 0 0
0 0 0
    <DataArray type="Float64" Name="FGrav" NumberOfComponents="3"/>
0 0 -102.73
0 0 -102.73
0 0 -102.73
0 0 -102.73
0 0 -102.73
0 0 -102.73
0 0 -102.73
0 0 -102.73
0 0 -102.73
0 0 -102.73
0 0 -102.73
0 0 -102.73
0 0 -102.73
0 0 -102.73
0 0 -102.73
0 0 -102.73
0 0 -102.73
0 0 -102.73
0 0 -102.73
0 0 -102.73
    <DataArray type="Float64" Name="MParticle" NumberOfComponents="3"/>
0.761067 -2.32486 -1.67506
0 0 0
-2.23466 -0.661147 1.63375
-2.35861 -3.70691 0.147422
-0.885012 -0.720906 0.188739
0 0 0
0 0 0
0 0 0
0 0 0
0 0 0
0 0 0
0 0 0
0 0 0
0 0 0
0 0 0
0 0 0
0 0 0
0 0 0
0 0 0
0 0 0
    <DataArray type="Float64" Name="FWall" NumberOfComponents="3"/>
25.777 -29.7793 171.134
-14.7044 28.8313 164.39
42.4253 -2.52491 174.065
0 0 0
0 0 0
0 0 0
0 0 0
0 0 0
0 0 0
0 0 0
0 0 0
0 0 0
0 0 0
0 0 0
0 0 0
0 0 0
0 0 0
0 0 0
0 0 0
0 0 0
    <DataArray type="Float64" Name="MWall" NumberOfComponents="3"/>
-2.97793 -2.5777 0
2.88313 1.47044 0
-0.252491 -4.24253 0
0 0 0
0 0 0
0 0 0
0 0 0
0 0 0
0 0 0
0 0 0
0 0 0
0 0 0
0 0 0
0 0 0
0 0 0
0 0 0
0 0 0
0 0 0
0 0 0
0 0 0
    <DataArray type="Float64" Name="FHydro" NumberOfComponents="3"/>
0 0 0
0 0 0
0 0 0
0 0 0
0 0 0
0 0 0
0 0 0
0 0 0
0 0 0
0 0 0
0 0 0
0 0 0
0 0 0
0 0 0
0 0 0
0 0 0
0 0 0
0 0 0
0 0 0
0 0 0
    <DataArray type="Float64" Name="FSpringP" NumberOfComponents="3"/>
-28.6538 -6.05782 -4.61112
0 0 0
-10.2403 26.3426 -3.34655
31.843 -11.2356 9.45791
7.05123 -9.04913 -1.50024
0 0 0
0 0 0
0 0 0
0 0 0
0 0 0
0 0 0
0 0 0
0 0 0
0 0 0
0 0 0
0 0 0
0 0 0
0 0 0
0 0 0
0 0 0
    <DataArray type="Float64" Name="FSpringW" NumberOfComponents="3"/>
25.777 -29.7793 0
-14.7044 28.8313 0
42.4253 -2.52491 0
0 0 0
0 0 0
0 0 0
0 0 0
0 0 0
0 0 0
0 0 0
0 0 0
0 0 0
0 0 0
0 0 0
0 0 0
0 0 0
0 0 0
0 0 0
0 0 0
0 0 0
    <DataArray type="Float64" Name="MRolling" NumberOfComponents="3"/>
2.58029 -1.99378 -0.760365
1.16325 -2.82274 0.394593
-3.08951 1.98066 0.524441
-0.31669 -0.522246 0.0145693
0.00471366 -0.491249 -0.000364043
0 0 0
0 0 0
0 0 0
0 0 0
0 0 0
0 0 0
0 0 0
0 0 0
0 0 0
0 0 0
0 0 0
0 0 0
0 0 0
0 0 0
0 0 0
   </PointData>
   <CellData>
   </CellData>
   <Points>
    <DataArray type="Float64" Name="Points" NumberOfComponents="3"/>
1.99893 2.11745 0.137415
2.09929 1.94205 0.137418
1.89686 1.94055 0.137413
1.99762 2.0003 0.299417
2.03928 2.00034 0.494929
2.25203 1.99022 0.505592
2.49906 1.97072 0.470491
2.45004 1.96451 0.666887
2.16173 1.97812 0.720189
1.90991 1.99254 0.868825
1.80046 2.00242 1.06301
1.83622 2.00337 1.27176
1.89032 2.00267 1.47704
1.94561 2.00255 1.68115
1.98752 2.00253 1.88545
2.00526 2.00215 2.09026
2.01032 2.00156 2.29448
2.01318 2.00095 2.49772
2.01483 2.00029 2.69991
2.01603 1.99963 2.90101
   </Points>
   <Cells>
    <DataArray type="Int64" Name="connectivity" format="ascii">
0
1
2
3
4
5
6
7
8
9
10
11
12
13
14
15
16
17
18
19
    </DataArray>
    <DataArray type="Int64" Name="offsets" format="ascii">
1
2
3
4
5
6
7
8
9
10
11
12
13
14
15
16
17
18
19
20
    </DataArray>
    <DataArray type="Int64" Name="types" format="ascii">
1
1
1
1
1
1
1
1
1
1
1
1
1
1
1
1
1
1
1
1
    </DataArray>
   </Cells>
  </Piece>
 </UnstructuredGrid>
</VTKFile>