<?xml version="1.0"?>
<VTKFile type="UnstructuredGrid" version="0.1" byte_order="LittleEndian" compressor="vtkZLibDataCompressor">
 <UnstructuredGrid GhostLevel="0">
  <Piece NumberOfPoints="20" NumberOfCells="20">
   <PointData>
    <DataArray type="Float64" Name="radius"/>
0.1
0.1
0.1
0.1
0.1
0.1
0.1
0.1
0.1
0.1
0.1
0.1
0.1
0.1
0.1
0.1
0.1
0.1
0.1
0.1
    <DataArray type="Float64" Name="mass"/>
10.472
10.472
10.472
10.472
10.472
10.472
10.472
10.472
10.472
10.472
10.472
10.472
10.472
10.472
10.472
10.472
10.472
10.472
10.472
10.472
    <DataArray type="Float64" Name="particleIndex"/>
0
1
2
3
4
5
6
7
8
9
10
11
12
13
14
15
16
17
18
19
    <DataArray type="Float64" Name="clusterIndex"/>
0
1
2
3
4
5
6
7
8
9
10
11
12
13
14
15
16
17
18
19
    <DataArray type="Float64" Name="v" NumberOfComponents="3"/>
0.098744 0.20704 -2.14233e-13
0.274511 -0.349381 0.0165971
-0.0843053 -0.776949 -3.01381e-13
-0.441661 -0.283602 -0.169646
0.0540391 0.237542 0.28594
0.769349 0.00893533 6.3635e-12
0.689538 -0.0537784 3.48521e-13
0.691818 -0.416424 -1.30549
0.284403 -0.311794 0.000269193
-2.02788 -0.412401 6.37616e-13
-1.38451 -0.108491 -3.2298e-13
-1.87741 1.32872 2.4882e-13
-1.38302 0.440298 -4.67975e-13
-1.52569 0.386475 -3.20898e-06
-0.548838 0.916485 -0.337732
0.932461 -0.276575 -2.15254e-12
0.15806 -0.217783 0.0342662
-0.612082 -1.38134 -0.321013
0.636055 -0.556814 -0.811985
1.46495 0.437217 -0.858152
    <DataArray type="Float64" Name="w" NumberOfComponents="3"/>
-2.0704 0.98744 -0.00118487
3.51711 2.76771 0.389256
5.15022 -0.510529 -0.271186
2.12135 -5.0777 -1.78379
-2.54637 0.655189 -0.0961381
-0.0893532 7.69348 -0.950376
0.409468 5.25435 0.00453268
3.53623 1.45215 2.85061
2.81254 2.53638 -0.0361008
4.12401 -20.2788 0.765029
1.08491 -13.8451 1.39097
-13.2867 -18.7734 -2.26742
-2.02951 -6.37507 -0.000260496
-3.86476 -15.257 -0.0920908
-9.09897 -5.44958 0.102214
2.10283 5.87856 0.484531
2.4947 1.82253 -0.00281281
8.99239 3.88727 -1.55703
-15.532 9.84488 5.19896
6.20294 -1.88489 -2.18185
    <DataArray type="Float64" Name="FParticle" NumberOfComponents="3"/>
0 0 0
0 0 0
0 0 0
0 0 0
0 0 0
0 0 0
0 0 0
0 0 0
0 0 0
0 0 0
0 0 0
0 0 0
0 0 0
0 0 0
0 0 0
0 0 0
0 0 0
0 0 0
0 0 0
0 0 0
    <DataArray type="Float64" Name="FGrav" NumberOfComponents="3"/>
0 0 -102.73
0 0 -102.73
0 0 -102.73
0 0 -102.73
0 0 -102.73
0 0 -102.73
0 0 -102.73
0 0 -102.73
0 0 -102.73
0 0 -102.73
0 0 -102.73
0 0 -102.73
0 0 -102.73
0 0 -102.73
0 0 -102.73
0 0 -102.73
0 0 -102.73
0 0 -102.73
0 0 -102.73
0 0 -102.73
    <DataArray type="Float64" Name="MParticle" NumberOfComponents="3"/>
0 0 0
0 0 0
0 0 0
0 0 0
0 0 0
0 0 0
0 0 0
0 0 0
0 0 0
0 0 0
0 0 0
0 0 0
0 0 0
0 0 0
0 0 0
0 0 0
0 0 0
0 0 0
0 0 0
0 0 0
    <DataArray type="Float64" Name="FWall" NumberOfComponents="3"/>
-6.31772 -13.2466 102.73
-6.29057 8.26389 72.2006
5.17522 40.7648 102.73
0 0 0
0 0 0
-14.5651 -0.169161 102.73
-40.967 3.20329 102.73
0 0 0
-28.9798 28.7677 102.085
14.3741 2.92319 102.73
14.5598 1.14091 102.73
11.9597 -8.46445 102.73
39.1556 -12.4658 102.73
14.223 -3.60284 102.714
0 0 0
-40.3522 7.76257 102.73
0 0 0
0 0 0
0 0 0
0 0 0
    <DataArray type="Float64" Name="MWall" NumberOfComponents="3"/>
-1.32466 0.631772 0
0.826389 0.629057 0
4.07648 -0.517522 0
0 0 0
0 0 0
-0.0169161 1.45651 0
0.320329 4.0967 0
0 0 0
2.87677 2.89798 0
0.292319 -1.43741 0
0.114091 -1.45598 0
-0.846445 -1.19597 0
-1.24658 -3.91556 0
-0.360284 -1.4223 0
0 0 0
0.776257 4.03522 0
0 0 0
0 0 0
0 0 0
0 0 0
    <DataArray type="Float64" Name="FHydro" NumberOfComponents="3"/>
0 0 0
0 0 0
0 0 0
0 0 0
0 0 0
0 0 0
0 0 0
0 0 0
0 0 0
0 0 0
0 0 0
0 0 0
0 0 0
0 0 0
0 0 0
0 0 0
0 0 0
0 0 0
0 0 0
0 0 0
    <DataArray type="Float64" Name="FSpringP" NumberOfComponents="3"/>
0 0 0
0 0 0
0 0 0
0 0 0
0 0 0
0 0 0
0 0 0
0 0 0
0 0 0
0 0 0
0 0 0
0 0 0
0 0 0
0 0 0
0 0 0
0 0 0
0 0 0
0 0 0
0 0 0
0 0 0
    <DataArray type="Float64" Name="FSpringW" NumberOfComponents="3"/>
-6.31772 -13.2466 0
-6.29057 8.26389 0
5.17522 40.7648 0
0 0 0
0 0 0
-14.5651 -0.169161 0
-40.967 3.20329 0
0 0 0
-28.9798 28.7677 0
14.3741 2.92319 0
14.5598 1.14091 0
11.9597 -8.46445 0
39.1556 -12.4658 0
14.223 -3.60284 0
0 0 0
-40.3522 7.76257 0
0 0 0
0 0 0
0 0 0
0 0 0
    <DataArray type="Float64" Name="MRolling" NumberOfComponents="3"/>
1.85448 -0.884463 0.00106131
-1.13052 -0.889634 -0.12512
-2.04178 0.202397 0.10751
0 0 0
0 0 0
0.0236809 -2.03897 0.251874
-0.15963 -2.04839 -0.00176705
0 0 0
-1.51614 -1.36728 0.0194607
-0.409174 2.01201 -0.0759043
-0.159708 2.03812 -0.204763
1.18121 1.66898 0.201577
0.623265 1.95779 7.99986e-05
0.504429 1.99134 0.0120197
0 0 0
-0.689938 -1.92876 -0.158975
0 0 0
0 0 0
0 0 0
0 0 0
   </PointData>
   <CellData>
   </CellData>
   <Points>
    <DataArray type="Float64" Name="Points" NumberOfComponents="3"/>
2.09239 2.22275 0.137449
2.40447 1.75897 0.137413
1.94793 1.67168 0.137449
1.86962 2.02787 0.137843
2.50037 2.10331 0.138892
2.69548 1.99239 0.137449
2.89599 1.96471 0.137449
2.79058 1.77039 0.162031
2.59873 1.7113 0.137448
0.850851 1.71187 0.137449
0.876398 1.96767 0.137449
0.794234 2.57465 0.137449
1.48375 2.18093 0.137449
1.09813 2.22361 0.137449
1.64767 2.48705 0.147791
2.32492 1.95398 0.137449
2.08879 1.87359 0.144003
1.89975 1.8873 0.301122
2.04106 1.96927 0.451197
2.14274 2.02088 0.636204
   </Points>
   <Cells>
    <DataArray type="Int64" Name="connectivity" format="ascii">
0
1
2
3
4
5
6
7
8
9
10
11
12
13
14
15
16
17
18
19
    </DataArray>
    <DataArray type="Int64" Name="offsets" format="ascii">
1
2
3
4
5
6
7
8
9
10
11
12
13
14
15
16
17
18
19
20
    </DataArray>
    <DataArray type="Int64" Name="types" format="ascii">
1
1
1
1
1
1
1
1
1
1
1
1
1
1
1
1
1
1
1
1
    </DataArray>
   </Cells>
  </Piece>
 </UnstructuredGrid>
</VTKFile>