<?xml version="1.0"?>
<VTKFile type="UnstructuredGrid" version="0.1" byte_order="LittleEndian" compressor="vtkZLibDataCompressor">
 <UnstructuredGrid GhostLevel="0">
  <Piece NumberOfPoints="20" NumberOfCells="20">
   <PointData>
    <DataArray type="Float64" Name="radius"/>
0.1
0.1
0.1
0.1
0.1
0.1
0.1
0.1
0.1
0.1
0.1
0.1
0.1
0.1
0.1
0.1
0.1
0.1
0.1
0.1
    <DataArray type="Float64" Name="mass"/>
10.472
10.472
10.472
10.472
10.472
10.472
10.472
10.472
10.472
10.472
10.472
10.472
10.472
10.472
10.472
10.472
10.472
10.472
10.472
10.472
    <DataArray type="Float64" Name="particleIndex"/>
0
1
2
3
4
5
6
7
8
9
10
11
12
13
14
15
16
17
18
19
    <DataArray type="Float64" Name="clusterIndex"/>
0
1
2
3
4
5
6
7
8
9
10
11
12
13
14
15
16
17
18
19
    <DataArray type="Float64" Name="v" NumberOfComponents="3"/>
-0.00868244 0.00187905 -0.00022674
-0.00763797 0.00259729 0.0012976
-0.00974315 -0.00189533 -0.000950376
-0.0164988 0.00155437 -0.000745775
0.072802 -0.00249821 -0.0056044
0.282271 -0.0119124 -0.026798
0.519441 -0.0324732 -0.0491002
0.499642 -0.0411362 -0.0488593
0.224195 -0.029647 -0.0771097
-0.0467204 -0.0147066 -0.106301
-0.218857 -0.00150504 -0.120849
-0.225939 0.0037582 -0.121095
-0.157554 0.00307459 -0.122346
-0.0915002 0.00315457 -0.124319
-0.0376056 0.00359178 -0.12604
-0.0044982 0.00341032 -0.127086
0.0107852 0.0026985 -0.127666
0.0190855 0.00177677 -0.128048
0.0234893 0.000733288 -0.128297
0.0264668 -0.000341421 -0.128427
    <DataArray type="Float64" Name="w" NumberOfComponents="3"/>
-0.0075962 -0.0716555 -0.0160735
-0.0226889 -0.0660763 0.000713094
0.00142098 -0.0927258 0.00995977
0.0295751 0.0153927 0.0257647
0.0137735 0.904076 0.0274278
0.0878294 1.21106 0.0244583
0.119009 1.16935 0.0222206
-0.0461359 -1.36658 -0.0104828
-0.0742547 -1.40139 -0.0117282
-0.070073 -1.32884 -0.00270895
-0.0542474 -0.399992 -0.00284249
0.00752574 0.327249 0.00127414
-0.00274716 0.354775 0.00170125
-0.00124266 0.306276 0.00220875
-0.00157071 0.23387 0.00255164
0.00272162 0.0978705 0.00314083
0.00530041 0.0550469 0.0033114
0.0042027 0.0278867 0.00349862
0.00613903 0.0161276 0.00358956
0.00551108 0.0137 0.00365034
    <DataArray type="Float64" Name="FParticle" NumberOfComponents="3"/>
-178.563 200.66 -693.426
255.148 -146.856 -408.802
-220.053 -175.405 -721.689
-90.8648 105.944 -4.52822
39.0324 37.3782 117.28
90.7727 -35.4833 104.709
110.002 -65.4262 105.666
99.9999 33.721 116.353
39.3787 66.9083 109.676
-45.7719 19.8529 101.128
-49.8801 -8.70145 104.759
-36.5993 -46.0296 109.277
-21.0139 -7.24491 112.643
-7.49971 28.5046 115.215
0.798453 -12.7294 117.759
4.26838 9.7038 119.969
3.64333 -3.45043 121.845
2.96897 -2.16352 123.264
2.21399 6.01458 124.219
2.0182 -5.19839 124.683
    <DataArray type="Float64" Name="FGrav" NumberOfComponents="3"/>
0 0 -102.73
0 0 -102.73
0 0 -102.73
0 0 -102.73
0 0 -102.73
0 0 -102.73
0 0 -102.73
0 0 -102.73
0 0 -102.73
0 0 -102.73
0 0 -102.73
0 0 -102.73
0 0 -102.73
0 0 -102.73
0 0 -102.73
0 0 -102.73
0 0 -102.73
0 0 -102.73
0 0 -102.73
0 0 -102.73
    <DataArray type="Float64" Name="MParticle" NumberOfComponents="3"/>
24.1063 -15.282 -10.6298
0 0 0
-7.41817 18.1241 -2.14311
18.2592 -10.9373 -12.8563
-0.240335 -15.8351 0.0972876
1.56887 2.69941 -0.0800347
12.8378 4.02353 -0.187574
13.8686 -4.6364 0.537398
1.18598 -3.28087 0.108327
-8.36492 0.580079 -0.79144
-8.58283 1.81569 -0.537247
-2.08262 4.60062 -0.122292
3.21612 4.01674 -0.0700974
0.931257 1.48882 -0.0272003
-0.427347 -0.116754 0.0127793
0.0427784 -0.777554 -0.00397543
-0.566809 -0.886465 0.00621356
-0.00908603 -0.750248 -0.000148802
-0.405925 -0.471801 0.000824002
-0.509226 -0.160307 0.00155904
    <DataArray type="Float64" Name="FWall" NumberOfComponents="3"/>
139.584 -258.679 791.071
-89.1653 104.108 630.93
197.983 220.978 830.842
0 0 0
0 0 0
0 0 0
0 0 0
0 0 0
0 0 0
0 0 0
0 0 0
0 0 0
0 0 0
0 0 0
0 0 0
0 0 0
0 0 0
0 0 0
0 0 0
0 0 0
    <DataArray type="Float64" Name="MWall" NumberOfComponents="3"/>
-25.8679 -13.9584 0
10.4108 8.91653 0
22.0978 -19.7983 0
0 0 0
0 0 0
0 0 0
0 0 0
0 0 0
0 0 0
0 0 0
0 0 0
0 0 0
0 0 0
0 0 0
0 0 0
0 0 0
0 0 0
0 0 0
0 0 0
0 0 0
    <DataArray type="Float64" Name="FHydro" NumberOfComponents="3"/>
0 0 0
0 0 0
0 0 0
0 0 0
0 0 0
0 0 0
0 0 0
0 0 0
0 0 0
0 0 0
0 0 0
0 0 0
0 0 0
0 0 0
0 0 0
0 0 0
0 0 0
0 0 0
0 0 0
0 0 0
    <DataArray type="Float64" Name="FSpringP" NumberOfComponents="3"/>
-186.122 -194.693 -142.188
0 0 0
153.766 49.6074 -112.719
-105.247 129.354 262.158
117.157 33.9354 -5.12604
67.7486 -52.0978 -7.03453
-54.6093 -60.679 3.87791
-31.5334 50.2198 -2.99234
45.0744 76.7988 4.42254
-6.63325 19.1361 -0.883846
18.9897 -17.1368 0.958694
8.81669 -48.049 -0.897945
-14.6523 -4.9599 0.152968
-10.6247 27.8127 0.201912
-5.42762 -14.2211 0.133438
-1.17889 9.51749 -0.00288661
0.0893038 -3.42067 -0.0261839
1.27249 -2.15693 -0.0207609
1.51187 6.12533 -0.00341141
1.60305 -5.09229 -0.00967023
    <DataArray type="Float64" Name="FSpringW" NumberOfComponents="3"/>
139.584 -258.679 0
-89.1653 104.108 0
197.983 220.978 0
0 0 0
0 0 0
0 0 0
0 0 0
0 0 0
0 0 0
0 0 0
0 0 0
0 0 0
0 0 0
0 0 0
0 0 0
0 0 0
0 0 0
0 0 0
0 0 0
0 0 0
    <DataArray type="Float64" Name="MRolling" NumberOfComponents="3"/>
-7.6297 -13.8614 -5.52214
10.808 7.25223 6.81564
11.1923 16.6209 -0.563361
1.33734 4.29384 -4.66164
3.19397 -1.24502 0.847435
-8.07569 -14.4461 -0.425012
4.18408 -0.950695 0.228342
3.91447 1.62716 -1.40733
-0.312964 11.1212 3.43903
-3.09438 0.620507 -2.01559
0.408626 -0.553808 0.0889916
-4.96558 -3.81805 -0.0256437
7.9368 -4.05798 0.0401606
-4.26877 -1.00812 -0.0433562
0.915221 0.480805 0.0302815
1.07445 0.861759 -0.0317281
-2.36196 0.835018 0.037261
2.37243 0.825335 -0.0351335
-1.72129 0.394513 0.0187302
0.604073 0.153914 -0.0107809
   </PointData>
   <CellData>
   </CellData>
   <Points>
    <DataArray type="Float64" Name="Points" NumberOfComponents="3"/>
1.9999 2.11683 0.137105
2.09871 1.94252 0.137183
1.89825 1.94082 0.137087
1.99768 2.00067 0.299062
2.0081 2.00066 0.496953
2.02824 2.00026 0.694205
2.04696 1.99778 0.891693
2.04527 1.99574 1.09017
2.02462 1.9959 1.28771
2.00314 1.9976 1.48525
1.98634 1.99934 1.68335
1.98065 1.99969 1.8822
1.98372 1.99965 2.08122
1.9887 2.00015 2.28031
1.99361 2.00054 2.47952
1.99745 2.00051 2.67887
2.00002 2.00041 2.87836
2.00153 2.00029 3.07799
2.00242 2.00012 3.27774
2.00309 1.99995 3.47761
   </Points>
   <Cells>
    <DataArray type="Int64" Name="connectivity" format="ascii">
0
1
2
3
4
5
6
7
8
9
10
11
12
13
14
15
16
17
18
19
    </DataArray>
    <DataArray type="Int64" Name="offsets" format="ascii">
1
2
3
4
5
6
7
8
9
10
11
12
13
14
15
16
17
18
19
20
    </DataArray>
    <DataArray type="Int64" Name="types" format="ascii">
1
1
1
1
1
1
1
1
1
1
1
1
1
1
1
1
1
1
1
1
    </DataArray>
   </Cells>
  </Piece>
 </UnstructuredGrid>
</VTKFile>