<?xml version="1.0"?>
<VTKFile type="UnstructuredGrid" version="0.1" byte_order="LittleEndian" compressor="vtkZLibDataCompressor">
 <UnstructuredGrid GhostLevel="0">
  <Piece NumberOfPoints="20" NumberOfCells="20">
   <PointData>
    <DataArray type="Float64" Name="radius"/>
0.1
0.1
0.1
0.1
0.1
0.1
0.1
0.1
0.1
0.1
0.1
0.1
0.1
0.1
0.1
0.1
0.1
0.1
0.1
0.1
    <DataArray type="Float64" Name="mass"/>
10.472
10.472
10.472
10.472
10.472
10.472
10.472
10.472
10.472
10.472
10.472
10.472
10.472
10.472
10.472
10.472
10.472
10.472
10.472
10.472
    <DataArray type="Float64" Name="particleIndex"/>
0
1
2
3
4
5
6
7
8
9
10
11
12
13
14
15
16
17
18
19
    <DataArray type="Float64" Name="clusterIndex"/>
0
1
2
3
4
5
6
7
8
9
10
11
12
13
14
15
16
17
18
19
    <DataArray type="Float64" Name="v" NumberOfComponents="3"/>
-0.00375339 0.00143897 0.00213977
-1.40159e-05 -0.00114057 0.00311399
-0.00516078 -0.00119024 0.00236286
-0.00511682 0.000837304 0.00710208
0.0233789 0.000797901 0.0225318
0.0715497 0.00225815 0.0369473
0.112333 -0.00192436 0.0517027
0.10921 -0.00982496 0.0668927
0.0656244 -0.0152729 0.0802256
0.0170839 -0.0123006 0.0924029
-0.0246086 -0.00507585 0.104177
-0.0459063 -0.00106315 0.11576
-0.0465549 0.000661674 0.126527
-0.037106 0.00199791 0.136082
-0.0236401 0.0024565 0.144374
-0.0108299 0.00181112 0.1514
-0.00133048 0.00108635 0.157121
0.00446652 0.000588992 0.161475
0.00768434 0.00020887 0.164403
0.00958871 -9.68669e-05 0.165874
    <DataArray type="Float64" Name="w" NumberOfComponents="3"/>
-0.0249732 -0.0200126 -0.00241703
0.00881874 0.00630431 -0.000209747
0.0183604 -0.0627064 -0.00477301
0.0173833 0.0583362 0.00298922
-0.0221831 0.236611 0.00633836
0.0100673 0.246244 0.0110716
0.0346573 0.158603 0.00950426
0.0384939 -0.189489 0.00284807
0.017635 -0.244124 0.00163964
-0.046291 -0.240787 0.00309644
-0.028154 -0.176638 0.00192849
-0.00952731 -0.0363629 0.00175032
-0.00844402 0.0302416 0.00144241
-0.00403946 0.064219 0.00188947
-9.11827e-05 0.0702146 0.00251807
0.00584329 0.0577157 0.00402519
0.00188489 0.0370306 0.00320579
0.00216011 0.020838 0.00462296
0.00230564 0.0112716 0.00377127
0.00133023 0.00776262 0.00448561
    <DataArray type="Float64" Name="FParticle" NumberOfComponents="3"/>
-145.13 145.236 -592.992
259.933 -150.581 -419.673
-132.916 -142.879 -466.945
-68.1901 101.407 31.4311
45.9763 61.3374 101.755
36.0018 8.49156 96.7351
4.04751 -49.4113 95.5086
3.98505 41.6842 94.5349
13.9518 -7.43572 93.4982
7.93474 -22.7471 92.3532
-6.40262 26.4324 90.7294
-8.6661 -19.039 89.8159
-3.3634 10.2613 88.9487
-3.98745 -1.32756 88.0906
-4.10312 -5.89396 87.3
-1.07386 7.55698 86.6011
-0.761459 -8.45504 86.0554
0.583573 9.35134 85.6472
0.811454 -0.618991 85.3721
1.36865 -3.36967 85.2339
    <DataArray type="Float64" Name="FGrav" NumberOfComponents="3"/>
0 0 -102.73
0 0 -102.73
0 0 -102.73
0 0 -102.73
0 0 -102.73
0 0 -102.73
0 0 -102.73
0 0 -102.73
0 0 -102.73
0 0 -102.73
0 0 -102.73
0 0 -102.73
0 0 -102.73
0 0 -102.73
0 0 -102.73
0 0 -102.73
0 0 -102.73
0 0 -102.73
0 0 -102.73
0 0 -102.73
    <DataArray type="Float64" Name="MParticle" NumberOfComponents="3"/>
22.673 -12.3425 -8.57197
0 0 0
-2.34416 12.5356 -3.16847
24.727 -5.53104 -11.8175
2.84863 -5.13272 -0.0242681
-3.08465 3.30395 0.108051
1.84688 2.2151 0.0658278
2.00926 -3.0234 -0.0306733
-2.57221 -3.78071 -0.0733582
-0.0527767 -0.80135 -0.00626072
0.0768505 1.4594 0.0144555
-0.250484 2.07487 -0.0105327
0.447238 2.20026 0.0016209
-0.578246 1.8691 0.00152581
0.248349 0.929862 -0.00220843
0.15028 0.137621 -0.00169716
0.233233 -0.284521 0.00030409
0.142323 -0.439202 -0.000825075
-0.730486 -0.345324 0.000161951
-0.335423 -0.136122 4.61224e-06
    <DataArray type="Float64" Name="FWall" NumberOfComponents="3"/>
110.64 -203.145 665.919
-127.955 152.694 620.657
116.372 154.749 573.727
0 0 0
0 0 0
0 0 0
0 0 0
0 0 0
0 0 0
0 0 0
0 0 0
0 0 0
0 0 0
0 0 0
0 0 0
0 0 0
0 0 0
0 0 0
0 0 0
0 0 0
    <DataArray type="Float64" Name="MWall" NumberOfComponents="3"/>
-20.3145 -11.064 0
15.2694 12.7955 0
15.4749 -11.6372 0
0 0 0
0 0 0
0 0 0
0 0 0
0 0 0
0 0 0
0 0 0
0 0 0
0 0 0
0 0 0
0 0 0
0 0 0
0 0 0
0 0 0
0 0 0
0 0 0
0 0 0
    <DataArray type="Float64" Name="FHydro" NumberOfComponents="3"/>
0 0 0
0 0 0
0 0 0
0 0 0
0 0 0
0 0 0
0 0 0
0 0 0
0 0 0
0 0 0
0 0 0
0 0 0
0 0 0
0 0 0
0 0 0
0 0 0
0 0 0
0 0 0
0 0 0
0 0 0
    <DataArray type="Float64" Name="FSpringP" NumberOfComponents="3"/>
-150.252 -183.655 -132.978
0 0 0
111.372 3.21785 -69.6666
-18.3484 136.449 203.879
63.138 59.4932 -1.44814
21.2098 -0.145085 -0.374292
-32.0936 -49.1787 0.350912
-20.2768 47.5523 -0.432667
12.7105 -1.73398 0.22665
17.0718 -23.4693 0.597922
5.52722 22.1696 -0.0254983
0.629863 -18.8934 -0.139375
0.624579 11.9156 -0.0730019
-3.93652 -1.66076 0.0210904
-5.45557 -6.60526 0.0489685
-2.46658 7.58598 0.0163839
-1.75479 -8.41542 0.00115517
0.207974 9.32449 -0.00196639
0.730803 -0.596394 -0.00123465
1.36122 -3.35423 -0.000726123
    <DataArray type="Float64" Name="FSpringW" NumberOfComponents="3"/>
110.64 -203.145 0
-127.955 152.694 0
116.372 154.749 0
0 0 0
0 0 0
0 0 0
0 0 0
0 0 0
0 0 0
0 0 0
0 0 0
0 0 0
0 0 0
0 0 0
0 0 0
0 0 0
0 0 0
0 0 0
0 0 0
0 0 0
    <DataArray type="Float64" Name="MRolling" NumberOfComponents="3"/>
-1.06726 -12.363 -2.21188
11.1456 -1.19191 7.42269
6.03191 12.1727 -0.385269
1.07085 1.67496 -8.03478
6.49973 -8.31088 6.00333
-9.01429 -3.10672 -3.45141
3.02291 -0.460561 1.34396
3.66152 1.95921 -0.329097
-8.48477 3.49432 0.455729
7.92544 3.38515 -0.333583
-2.69266 0.825067 0.228183
-1.65842 -0.661153 -0.176045
3.74644 -1.55471 0.348352
-4.98178 -1.01651 -0.496868
4.48617 -1.29092 0.695289
-3.34284 -0.326574 -0.898923
1.91574 0.0312482 1.15205
-0.256537 0.363922 -1.2266
-0.64276 0.41893 0.799527
0.319343 0.141829 -0.243984
   </PointData>
   <CellData>
   </CellData>
   <Points>
    <DataArray type="Float64" Name="Points" NumberOfComponents="3"/>
2.00052 2.11661 0.13716
2.09917 1.94244 0.137182
1.899 1.941 0.137206
1.99871 2.00063 0.29937
2.00269 2.00102 0.497813
2.00951 2.00117 0.696279
2.01451 1.99995 0.894894
2.0137 1.99867 1.09367
2.00827 1.99838 1.29247
2.00205 1.99924 1.49135
1.99725 2.00002 1.69036
1.99493 1.9998 1.88951
1.99497 1.99961 2.08877
1.99634 1.99992 2.28812
1.99797 2.00017 2.48756
1.99929 2.00013 2.6871
2.00014 2.0001 2.88673
2.00051 2.00009 3.08645
2.00061 2.00005 3.28627
2.00063 2.00001 3.48618
   </Points>
   <Cells>
    <DataArray type="Int64" Name="connectivity" format="ascii">
0
1
2
3
4
5
6
7
8
9
10
11
12
13
14
15
16
17
18
19
    </DataArray>
    <DataArray type="Int64" Name="offsets" format="ascii">
1
2
3
4
5
6
7
8
9
10
11
12
13
14
15
16
17
18
19
20
    </DataArray>
    <DataArray type="Int64" Name="types" format="ascii">
1
1
1
1
1
1
1
1
1
1
1
1
1
1
1
1
1
1
1
1
    </DataArray>
   </Cells>
  </Piece>
 </UnstructuredGrid>
</VTKFile>