<?xml version="1.0"?>
<VTKFile type="UnstructuredGrid" version="0.1" byte_order="LittleEndian" compressor="vtkZLibDataCompressor">
 <UnstructuredGrid GhostLevel="0">
  <Piece NumberOfPoints="880" NumberOfCells="880">
   <PointData>
    <DataArray type="Float64" Name="radius"/>
0.1
0.1
0.1
0.1
0.1
0.1
0.1
0.1
0.1
0.1
0.1
0.1
0.1
0.1
0.1
0.1
0.1
0.1
0.1
0.1
0.1
0.1
0.1
0.1
0.1
0.1
0.1
0.1
0.1
0.1
0.1
0.1
0.1
0.1
0.1
0.1
0.1
0.1
0.1
0.1
0.1
0.1
0.1
0.1
0.1
0.1
0.1
0.1
0.1
0.1
0.1
0.1
0.1
0.1
0.1
0.1
0.1
0.1
0.1
0.1
0.1
0.1
0.1
0.1
0.1
0.1
0.1
0.1
0.1
0.1
0.1
0.1
0.1
0.1
0.1
0.1
0.1
0.1
0.1
0.1
0.1
0.1
0.1
0.1
0.1
0.1
0.1
0.1
0.1
0.1
0.1
0.1
0.1
0.1
0.1
0.1
0.1
0.1
0.1
0.1
0.1
0.1
0.1
0.1
0.1
0.1
0.1
0.1
0.1
0.1
0.1
0.1
0.1
0.1
0.1
0.1
0.1
0.1
0.1
0.1
0.1
0.1
0.1
0.1
0.1
0.1
0.1
0.1
0.1
0.1
0.1
0.1
0.1
0.1
0.1
0.1
0.1
0.1
0.1
0.1
0.1
0.1
0.1
0.1
0.1
0.1
0.1
0.1
0.1
0.1
0.1
0.1
0.1
0.1
0.1
0.1
0.1
0.1
0.1
0.1
0.1
0.1
0.1
0.1
0.1
0.1
0.1
0.1
0.1
0.1
0.1
0.1
0.1
0.1
0.1
0.1
0.1
0.1
0.1
0.1
0.1
0.1
0.1
0.1
0.1
0.1
0.1
0.1
0.1
0.1
0.1
0.1
0.1
0.1
0.1
0.1
0.1
0.1
0.1
0.1
0.1
0.1
0.1
0.1
0.1
0.1
0.1
0.1
0.1
0.1
0.1
0.1
0.1
0.1
0.1
0.1
0.1
0.1
0.1
0.1
0.1
0.1
0.1
0.1
0.1
0.1
0.1
0.1
0.1
0.1
0.1
0.1
0.1
0.1
0.1
0.1
0.1
0.1
0.1
0.1
0.1
0.1
0.1
0.1
0.1
0.1
0.1
0.1
0.1
0.1
0.1
0.1
0.1
0.1
0.1
0.1
0.1
0.1
0.1
0.1
0.1
0.1
0.1
0.1
0.1
0.1
0.1
0.1
0.1
0.1
0.1
0.1
0.1
0.1
0.1
0.1
0.1
0.1
0.1
0.1
0.1
0.1
0.1
0.1
0.1
0.1
0.1
0.1
0.1
0.1
0.1
0.1
0.1
0.1
0.1
0.1
0.1
0.1
0.1
0.1
0.1
0.1
0.1
0.1
0.1
0.1
0.1
0.1
0.1
0.1
0.1
0.1
0.1
0.1
0.1
0.1
0.1
0.1
0.1
0.1
0.1
0.1
0.1
0.1
0.1
0.1
0.1
0.1
0.1
0.1
0.1
0.1
0.1
0.1
0.1
0.1
0.1
0.1
0.1
0.1
0.1
0.1
0.1
0.1
0.1
0.1
0.1
0.1
0.1
0.1
0.1
0.1
0.1
0.1
0.1
0.1
0.1
0.1
0.1
0.1
0.1
0.1
0.1
0.1
0.1
0.1
0.1
0.1
0.1
0.1
0.1
0.1
0.1
0.1
0.1
0.1
0.1
0.1
0.1
0.1
0.1
0.1
0.1
0.1
0.1
0.1
0.1
0.1
0.1
0.1
0.1
0.1
0.1
0.1
0.1
0.1
0.1
0.1
0.1
0.1
0.1
0.1
0.1
0.1
0.1
0.1
0.1
0.1
0.1
0.1
0.1
0.1
0.1
0.1
0.1
0.1
0.1
0.1
0.1
0.1
0.1
0.1
0.1
0.1
0.1
0.1
0.1
0.1
0.1
0.1
0.1
0.1
0.1
0.1
0.1
0.1
0.1
0.1
0.1
0.1
0.1
0.1
0.1
0.1
0.1
0.1
0.1
0.1
0.1
0.1
0.1
0.1
0.1
0.1
0.1
0.1
0.1
0.1
0.1
0.1
0.1
0.1
0.1
0.1
0.1
0.1
0.1
0.1
0.1
0.1
0.1
0.1
0.1
0.1
0.1
0.1
0.1
0.1
0.1
0.1
0.1
0.1
0.1
0.1
0.1
0.1
0.1
0.1
0.1
0.1
0.1
0.1
0.1
0.1
0.1
0.1
0.1
0.1
0.1
0.1
0.1
0.1
0.1
0.1
0.1
0.1
0.1
0.1
0.1
0.1
0.1
0.1
0.1
0.1
0.1
0.1
0.1
0.1
0.1
0.1
0.1
0.1
0.1
0.1
0.1
0.1
0.1
0.1
0.1
0.1
0.1
0.1
0.1
0.1
0.1
0.1
0.1
0.1
0.1
0.1
0.1
0.1
0.1
0.1
0.1
0.1
0.1
0.1
0.1
0.1
0.1
0.1
0.1
0.1
0.1
0.1
0.1
0.1
0.1
0.1
0.1
0.1
0.1
0.1
0.1
0.1
0.1
0.1
0.1
0.1
0.1
0.1
0.1
0.1
0.1
0.1
0.1
0.1
0.1
0.1
0.1
0.1
0.1
0.1
0.1
0.1
0.1
0.1
0.1
0.1
0.1
0.1
0.1
0.1
0.1
0.1
0.1
0.1
0.1
0.1
0.1
0.1
0.1
0.1
0.1
0.1
0.1
0.1
0.1
0.1
0.1
0.1
0.1
0.1
0.1
0.1
0.1
0.1
0.1
0.1
0.1
0.1
0.1
0.1
0.1
0.1
0.1
0.1
0.1
0.1
0.1
0.1
0.1
0.1
0.1
0.1
0.1
0.1
0.1
0.1
0.1
0.1
0.1
0.1
0.1
0.1
0.1
0.1
0.1
0.1
0.1
0.1
0.1
0.1
0.1
0.1
0.1
0.1
0.1
0.1
0.1
0.1
0.1
0.1
0.1
0.1
0.1
0.1
0.1
0.1
0.1
0.1
0.1
0.1
0.1
0.1
0.1
0.1
0.1
0.1
0.1
0.1
0.1
0.1
0.1
0.1
0.1
0.1
0.1
0.1
0.1
0.1
0.1
0.1
0.1
0.1
0.1
0.1
0.1
0.1
0.1
0.1
0.1
0.1
0.1
0.1
0.1
0.1
0.1
0.1
0.1
0.1
0.1
0.1
0.1
0.1
0.1
0.1
0.1
0.1
0.1
0.1
0.1
0.1
0.1
0.1
0.1
0.1
0.1
0.1
0.1
0.1
0.1
0.1
0.1
0.1
0.1
0.1
0.1
0.1
0.1
0.1
0.1
0.1
0.1
0.1
0.1
0.1
0.1
0.1
0.1
0.1
0.1
0.1
0.1
0.1
0.1
0.1
0.1
0.1
0.1
0.1
0.1
0.1
0.1
0.1
0.1
0.1
0.1
0.1
0.1
0.1
0.1
0.1
0.1
0.1
0.1
0.1
0.1
0.1
0.1
0.1
0.1
0.1
0.1
0.1
0.1
0.1
0.1
0.1
0.1
0.1
0.1
0.1
0.1
0.1
0.1
0.1
0.1
0.1
0.1
0.1
0.1
0.1
0.1
0.1
0.1
0.1
0.1
0.1
0.1
0.1
0.1
0.1
0.1
0.1
0.1
0.1
0.1
0.1
0.1
0.1
0.1
0.1
0.1
0.1
0.1
0.1
0.1
0.1
0.1
0.1
0.1
0.1
0.1
0.1
0.1
0.1
0.1
0.1
0.1
0.1
0.1
0.1
0.1
0.1
0.1
0.1
0.1
0.1
0.1
0.1
0.1
0.1
0.1
0.1
0.1
0.1
0.1
0.1
0.1
0.1
0.1
0.1
0.1
0.1
0.1
0.1
0.1
0.1
0.1
0.1
0.1
0.1
0.1
0.1
0.1
0.1
0.1
0.1
    <DataArray type="Float64" Name="objectIndex"/>
0
1
2
3
4
5
6
7
8
9
10
11
12
13
14
15
16
17
18
19
20
21
22
23
24
25
26
27
28
29
30
31
32
33
34
35
36
37
38
39
40
41
42
43
44
45
46
47
48
49
50
51
52
53
54
55
56
57
58
59
60
61
62
63
64
65
66
67
68
69
70
71
72
73
74
75
76
77
78
79
80
81
82
83
84
85
86
87
88
89
90
91
92
93
94
95
96
97
98
99
100
101
102
103
104
105
106
107
108
109
110
111
112
113
114
115
116
117
118
119
120
121
122
123
124
125
126
127
128
129
130
131
132
133
134
135
136
137
138
139
140
141
142
143
144
145
146
147
148
149
150
151
152
153
154
155
156
157
158
159
160
161
162
163
164
165
166
167
168
169
170
171
172
173
174
175
176
177
178
179
180
181
182
183
184
185
186
187
188
189
190
191
192
193
194
195
196
197
198
199
200
201
202
203
204
205
206
207
208
209
210
211
212
213
214
215
216
217
218
219
220
221
222
223
224
225
226
227
228
229
230
231
232
233
234
235
236
237
238
239
240
241
242
243
244
245
246
247
248
249
250
251
252
253
254
255
256
257
258
259
260
261
262
263
264
265
266
267
268
269
270
271
272
273
274
275
276
277
278
279
280
281
282
283
284
285
286
287
288
289
290
291
292
293
294
295
296
297
298
299
300
301
302
303
304
305
306
307
308
309
310
311
312
313
314
315
316
317
318
319
320
321
322
323
324
325
326
327
328
329
330
331
332
333
334
335
336
337
338
339
340
341
342
343
344
345
346
347
348
349
350
351
352
353
354
355
356
357
358
359
360
361
362
363
364
365
366
367
368
369
370
371
372
373
374
375
376
377
378
379
380
381
382
383
384
385
386
387
388
389
390
391
392
393
394
395
396
397
398
399
400
401
402
403
404
405
406
407
408
409
410
411
412
413
414
415
416
417
418
419
420
421
422
423
424
425
426
427
428
429
430
431
432
433
434
435
436
437
438
439
440
441
442
443
444
445
446
447
448
449
450
451
452
453
454
455
456
457
458
459
460
461
462
463
464
465
466
467
468
469
470
471
472
473
474
475
476
477
478
479
480
481
482
483
484
485
486
487
488
489
490
491
492
493
494
495
496
497
498
499
500
501
502
503
504
505
506
507
508
509
510
511
512
513
514
515
516
517
518
519
520
521
522
523
524
525
526
527
528
529
530
531
532
533
534
535
536
537
538
539
540
541
542
543
544
545
546
547
548
549
550
551
552
553
554
555
556
557
558
559
560
561
562
563
564
565
566
567
568
569
570
571
572
573
574
575
576
577
578
579
580
581
582
583
584
585
586
587
588
589
590
591
592
593
594
595
596
597
598
599
600
601
602
603
604
605
606
607
608
609
610
611
612
613
614
615
616
617
618
619
620
621
622
623
624
625
626
627
628
629
630
631
632
633
634
635
636
637
638
639
640
641
642
643
644
645
646
647
648
649
650
651
652
653
654
655
656
657
658
659
660
661
662
663
664
665
666
667
668
669
670
671
672
673
674
675
676
677
678
679
680
681
682
683
684
685
686
687
688
689
690
691
692
693
694
695
696
697
698
699
700
701
702
703
704
705
706
707
708
709
710
711
712
713
714
715
716
717
718
719
720
721
722
723
724
725
726
727
728
729
730
731
732
733
734
735
736
737
738
739
740
741
742
743
744
745
746
747
748
749
750
751
752
753
754
755
756
757
758
759
760
761
762
763
764
765
766
767
768
769
770
771
772
773
774
775
776
777
778
779
780
781
782
783
784
785
786
787
788
789
790
791
792
793
794
795
796
797
798
799
800
801
802
803
804
805
806
807
808
809
810
811
812
813
814
815
816
817
818
819
820
821
822
823
824
825
826
827
828
829
830
831
832
833
834
835
836
837
838
839
840
841
842
843
844
845
846
847
848
849
850
851
852
853
854
855
856
857
858
859
860
861
862
863
864
865
866
867
868
869
870
871
872
873
874
875
876
877
878
879
    <DataArray type="Float64" Name="v" NumberOfComponents="3"/>
0 0 0
0 0 0
0 0 0
0 0 0
0 0 0
0 0 0
0 0 0
0 0 0
0 0 0
0 0 0
0 0 0
0 0 0
0 0 0
0 0 0
0 0 0
0 0 0
0 0 0
0 0 0
0 0 0
0 0 0
0 0 0
0 0 0
0 0 0
0 0 0
0 0 0
0 0 0
0 0 0
0 0 0
0 0 0
0 0 0
0 0 0
0 0 0
0 0 0
0 0 0
0 0 0
0 0 0
0 0 0
0 0 0
0 0 0
0 0 0
0 0 0
0 0 0
0 0 0
0 0 0
0 0 0
0 0 0
0 0 0
0 0 0
0 0 0
0 0 0
0 0 0
0 0 0
0 0 0
0 0 0
0 0 0
0 0 0
0 0 0
0 0 0
0 0 0
0 0 0
0 0 0
0 0 0
0 0 0
0 0 0
0 0 0
0 0 0
0 0 0
0 0 0
0 0 0
0 0 0
0 0 0
0 0 0
0 0 0
0 0 0
0 0 0
0 0 0
0 0 0
0 0 0
0 0 0
0 0 0
0 0 0
0 0 0
0 0 0
0 0 0
0 0 0
0 0 0
0 0 0
0 0 0
0 0 0
0 0 0
0 0 0
0 0 0
0 0 0
0 0 0
0 0 0
0 0 0
0 0 0
0 0 0
0 0 0
0 0 0
0 0 0
0 0 0
0 0 0
0 0 0
0 0 0
0 0 0
0 0 0
0 0 0
0 0 0
0 0 0
0 0 0
0 0 0
0 0 0
0 0 0
0 0 0
0 0 0
0 0 0
0 0 0
0 0 0
0 0 0
0 0 0
0 0 0
0 0 0
0 0 0
0 0 0
0 0 0
0 0 0
0 0 0
0 0 0
0 0 0
0 0 0
0 0 0
0 0 0
0 0 0
0 0 0
0 0 0
0 0 0
0 0 0
0 0 0
0 0 0
0 0 0
0 0 0
0 0 0
0 0 0
0 0 0
0 0 0
0 0 0
0 0 0
0 0 0
0 0 0
0 0 0
0 0 0
0 0 0
0 0 0
0 0 0
0 0 0
0 0 0
0 0 0
0 0 0
0 0 0
0 0 0
0 0 0
0 0 0
0 0 0
0 0 0
0 0 0
0 0 0
0 0 0
0 0 0
0 0 0
0 0 0
0 0 0
0 0 0
0 0 0
0 0 0
0 0 0
0 0 0
0 0 0
0 0 0
0 0 0
0 0 0
0 0 0
0 0 0
0 0 0
0 0 0
0 0 0
0 0 0
0 0 0
0 0 0
0 0 0
0 0 0
0 0 0
0 0 0
0 0 0
0 0 0
0 0 0
0 0 0
0 0 0
0 0 0
0 0 0
0 0 0
0 0 0
0 0 0
0 0 0
0 0 0
0 0 0
0 0 0
0 0 0
0 0 0
0 0 0
0 0 0
0 0 0
0 0 0
0 0 0
0 0 0
0 0 0
0 0 0
0 0 0
0 0 0
0 0 0
0 0 0
0 0 0
0 0 0
0 0 0
0 0 0
0 0 0
0 0 0
0 0 0
0 0 0
0 0 0
0 0 0
0 0 0
0 0 0
0 0 0
0 0 0
0 0 0
0 0 0
0 0 0
0 0 0
0 0 0
0 0 0
0 0 0
0 0 0
0 0 0
0 0 0
0 0 0
0 0 0
0 0 0
0 0 0
0 0 0
0 0 0
0 0 0
0 0 0
0 0 0
0 0 0
0 0 0
0 0 0
0 0 0
0 0 0
0 0 0
0 0 0
0 0 0
0 0 0
0 0 0
0 0 0
0 0 0
0 0 0
0 0 0
0 0 0
0 0 0
0 0 0
0 0 0
0 0 0
0 0 0
0 0 0
0 0 0
0 0 0
0 0 0
0 0 0
0 0 0
0 0 0
0 0 0
0 0 0
0 0 0
0 0 0
0 0 0
0 0 0
0 0 0
0 0 0
0 0 0
0 0 0
0 0 0
0 0 0
0 0 0
0 0 0
0 0 0
0 0 0
0 0 0
0 0 0
0 0 0
0 0 0
0 0 0
0 0 0
0 0 0
0 0 0
0 0 0
0 0 0
0 0 0
0 0 0
0 0 0
0 0 0
0 0 0
0 0 0
0 0 0
0 0 0
0 0 0
0 0 0
0 0 0
0 0 0
0 0 0
0 0 0
0 0 0
0 0 0
0 0 0
0 0 0
0 0 0
0 0 0
0 0 0
0 0 0
0 0 0
0 0 0
0 0 0
0 0 0
0 0 0
0 0 0
0 0 0
0 0 0
0 0 0
0 0 0
0 0 0
0 0 0
0 0 0
0 0 0
0 0 0
0 0 0
0 0 0
0 0 0
0 0 0
0 0 0
0 0 0
0 0 0
0 0 0
0 0 0
0 0 0
0 0 0
0 0 0
0 0 0
0 0 0
0 0 0
0 0 0
0 0 0
0 0 0
0 0 0
0 0 0
0 0 0
0 0 0
0 0 0
0 0 0
0 0 0
0 0 0
0 0 0
0 0 0
0 0 0
0 0 0
0 0 0
0 0 0
0 0 0
0 0 0
0 0 0
0 0 0
0 0 0
0 0 0
0 0 0
0 0 0
0 0 0
0 0 0
0 0 0
0 0 0
0 0 0
0 0 0
0 0 0
0 0 0
0 0 0
0 0 0
0 0 0
0 0 0
0 0 0
0 0 0
0 0 0
0 0 0
0 0 0
0 0 0
0 0 0
0 0 0
0 0 0
0 0 0
0 0 0
0 0 0
0 0 0
0 0 0
0 0 0
0 0 0
0 0 0
0 0 0
0 0 0
0 0 0
0 0 0
0 0 0
0 0 0
0 0 0
0 0 0
0 0 0
0 0 0
0 0 0
0 0 0
0 0 0
0 0 0
0 0 0
0 0 0
0 0 0
0 0 0
0 0 0
0 0 0
0 0 0
0 0 0
0 0 0
0 0 0
0 0 0
0 0 0
0 0 0
0 0 0
0 0 0
0 0 0
0 0 0
0 0 0
0 0 0
0 0 0
0 0 0
0 0 0
0 0 0
0 0 0
0 0 0
0 0 0
0 0 0
0 0 0
0 0 0
0 0 0
0 0 0
0 0 0
0 0 0
0 0 0
0 0 0
0 0 0
0 0 0
0 0 0
0 0 0
0 0 0
0 0 0
0 0 0
0 0 0
0 0 0
0 0 0
0 0 0
0 0 0
0 0 0
0 0 0
0 0 0
0 0 0
0 0 0
0 0 0
0 0 0
0 0 0
0 0 0
0 0 0
0 0 0
0 0 0
0 0 0
0 0 0
0 0 0
0 0 0
0 0 0
0 0 0
0 0 0
0 0 0
0 0 0
0 0 0
0 0 0
0 0 0
0 0 0
0 0 0
0 0 0
0 0 0
0 0 0
0 0 0
0 0 0
0 0 0
0 0 0
0 0 0
0 0 0
0 0 0
0 0 0
0 0 0
0 0 0
0 0 0
0 0 0
0 0 0
0 0 0
0 0 0
0 0 0
0 0 0
0 0 0
0 0 0
0 0 0
0 0 0
0 0 0
0 0 0
0 0 0
0 0 0
0 0 0
0 0 0
0 0 0
0 0 0
0 0 0
0 0 0
0 0 0
0 0 0
0 0 0
0 0 0
0 0 0
0 0 0
0 0 0
0 0 0
0 0 0
0 0 0
0 0 0
0 0 0
0 0 0
0 0 0
0 0 0
0 0 0
0 0 0
0 0 0
0 0 0
0 0 0
0 0 0
0 0 0
0 0 0
0 0 0
0 0 0
0 0 0
0 0 0
0 0 0
0 0 0
0 0 0
0 0 0
0 0 0
0 0 0
0 0 0
0 0 0
0 0 0
0 0 0
0 0 0
0 0 0
0 0 0
0 0 0
0 0 0
0 0 0
0 0 0
0 0 0
0 0 0
0 0 0
0 0 0
0 0 0
0 0 0
0 0 0
0 0 0
0 0 0
0 0 0
0 0 0
0 0 0
0 0 0
0 0 0
0 0 0
0 0 0
0 0 0
0 0 0
0 0 0
0 0 0
0 0 0
0 0 0
0 0 0
0 0 0
0 0 0
0 0 0
0 0 0
0 0 0
0 0 0
0 0 0
0 0 0
0 0 0
0 0 0
0 0 0
0 0 0
0 0 0
0 0 0
0 0 0
0 0 0
0 0 0
0 0 0
0 0 0
0 0 0
0 0 0
0 0 0
0 0 0
0 0 0
0 0 0
0 0 0
0 0 0
0 0 0
0 0 0
0 0 0
0 0 0
0 0 0
0 0 0
0 0 0
0 0 0
0 0 0
0 0 0
0 0 0
0 0 0
0 0 0
0 0 0
0 0 0
0 0 0
0 0 0
0 0 0
0 0 0
0 0 0
0 0 0
0 0 0
0 0 0
0 0 0
0 0 0
0 0 0
0 0 0
0 0 0
0 0 0
0 0 0
0 0 0
0 0 0
0 0 0
0 0 0
0 0 0
0 0 0
0 0 0
0 0 0
0 0 0
0 0 0
0 0 0
0 0 0
0 0 0
0 0 0
0 0 0
0 0 0
0 0 0
0 0 0
0 0 0
0 0 0
0 0 0
0 0 0
0 0 0
0 0 0
0 0 0
0 0 0
0 0 0
0 0 0
0 0 0
0 0 0
0 0 0
0 0 0
0 0 0
0 0 0
0 0 0
0 0 0
0 0 0
0 0 0
0 0 0
0 0 0
0 0 0
0 0 0
0 0 0
0 0 0
0 0 0
0 0 0
0 0 0
0 0 0
0 0 0
0 0 0
0 0 0
0 0 0
0 0 0
0 0 0
0 0 0
0 0 0
0 0 0
0 0 0
0 0 0
0 0 0
0 0 0
0 0 0
0 0 0
0 0 0
0 0 0
0 0 0
0 0 0
0 0 0
0 0 0
0 0 0
0 0 0
0 0 0
0 0 0
0 0 0
0 0 0
0 0 0
0 0 0
0 0 0
0 0 0
0 0 0
0 0 0
0 0 0
0 0 0
0 0 0
0 0 0
0 0 0
0 0 0
0 0 0
0 0 0
0 0 0
0 0 0
0 0 0
0 0 0
0 0 0
0 0 0
0 0 0
0 0 0
0 0 0
0 0 0
0 0 0
0 0 0
0 0 0
0 0 0
0 0 0
0 0 0
0 0 0
0 0 0
0 0 0
0 0 0
0 0 0
0 0 0
0 0 0
0 0 0
0 0 0
0 0 0
0 0 0
0 0 0
0 0 0
0 0 0
0 0 0
0 0 0
0 0 0
0 0 0
0 0 0
0 0 0
0 0 0
0 0 0
0 0 0
0 0 0
0 0 0
0 0 0
0 0 0
0 0 0
0 0 0
0 0 0
0 0 0
0 0 0
0 0 0
0 0 0
0 0 0
0 0 0
0 0 0
0 0 0
0 0 0
0 0 0
0 0 0
0 0 0
0 0 0
0 0 0
0 0 0
0 0 0
0 0 0
0 0 0
0 0 0
0 0 0
0 0 0
0 0 0
0 0 0
0 0 0
0 0 0
0 0 0
0 0 0
0 0 0
0 0 0
0 0 0
0 0 0
0 0 0
0 0 0
0 0 0
0 0 0
0 0 0
0 0 0
0 0 0
0 0 0
0 0 0
0 0 0
0 0 0
0 0 0
0 0 0
0 0 0
0 0 0
0 0 0
0 0 0
0 0 0
0 0 0
0 0 0
0 0 0
0 0 0
0 0 0
0 0 0
0 0 0
0 0 0
0 0 0
0 0 0
0 0 0
0 0 0
0 0 0
0 0 0
0 0 0
0 0 0
0 0 0
0 0 0
0 0 0
0 0 0
0 0 0
0 0 0
0 0 0
0 0 0
0 0 0
0 0 0
0 0 0
0 0 0
0 0 0
0 0 0
0 0 0
0 0 0
0 0 0
0 0 0
0 0 0
0 0 0
0 0 0
0 0 0
    <DataArray type="Float64" Name="Force" NumberOfComponents="3"/>
0 0 0
0 0 0
0 0 0
0 0 0
0 0 0
0 0 0
0 0 0
0 0 0
0 0 0
0 0 0
0 0 0
0 0 0
0 0 0
0 0 0
0 0 0
0 0 0
0 0 0
0 0 0
0 0 0
0 0 0
0 0 0
0 0 0
0 0 0
0 0 0
0 0 0
0 0 0
0 0 0
0 0 0
0 0 0
0 0 0
0 0 0
0 0 0
0 0 0
0 0 0
0 0 0
0 0 0
0 0 0
0 0 0
0 0 0
-212.047 262.529 -86.8744
0 0 0
-440.13 233.703 -103.395
0 0 0
-208.224 345.966 -140.062
0 0 0
0 0 0
0 0 0
-156.152 217.082 -91.3808
0 0 0
0 0 0
0 0 0
-57.5072 120.679 -24.5416
0 0 0
-37.3897 61.2784 -17.7684
0 0 0
-179.94 68.159 -29.8709
0 0 0
-271.084 86.7369 -66.2729
0 0 0
0 0 0
0 0 0
-186.832 85.5552 -58.7311
0 0 0
0 0 0
0 0 0
-246.166 173.626 -83.9314
0 0 0
-48.407 45.0426 -17.0735
0 0 0
0 0 0
-57.5267 39.7448 -23.8545
0 0 0
0 0 0
0 0 0
0 0 0
0 0 0
0 0 0
-139.264 100.158 -3.28618
0 0 0
0 0 0
0 0 0
0 0 0
0 0 0
-59.3876 78.4053 10.4674
0 0 0
0 0 0
0 0 0
-77.4431 52.4351 9.16513
0 0 0
0 0 0
0 0 0
-19.3894 53.7 1.59901
0 0 0
-54.5331 43.6889 47.8975
0 0 0
-131.705 41.9854 33.7681
0 0 0
-44.391 14.3055 10.2297
0 0 0
0 0 0
0 0 0
0 0 0
0 0 0
0 0 0
0 0 0
-44.8105 41.696 15.8087
0 0 0
0 0 0
-67.5032 56.03 13.8673
0 0 0
0 0 0
0 0 0
0 0 0
0 0 0
0 0 0
-789.335 459.545 -238.022
-63.2785 221.42 9.48668
-70.116 106.583 -31.4168
0 0 0
-26.1298 15.2642 -7.81531
0 0 0
0 0 0
-538.841 613.727 -311.91
0 0 0
0 0 0
0 0 0
0 0 0
-1.61575 5.55924 -1.30872
0 0 0
-1951.99 1472.34 -832.91
0 0 0
0 0 0
0 0 0
-125.284 111.632 -7.46363
0 0 0
0 0 0
0 0 0
-527.549 -2.72884 165.313
0 0 0
-119.759 59.6659 27.0025
0 0 0
0 0 0
0 0 0
0 0 0
0 0 0
-24.7412 19.928 -8.2009
0 0 0
0 0 0
0 0 0
0 0 0
0 0 0
0 0 0
0 0 0
-1065.07 620.075 317.125
-113.783 494.198 289.328
-41.0754 23.9836 12.3016
0 0 0
-37.2566 9.08943 9.2712
0 0 0
0 0 0
0 0 0
0 0 0
0 0 0
-716.939 896.99 275.123
0 0 0
17.983 155.65 26.4368
0 0 0
0 0 0
0 0 0
-52.5652 51.6103 3.5972
0 0 0
-244.606 133.771 12.9831
0 0 0
-54.7107 49.5562 3.02367
0 0 0
0 0 0
0 0 0
0 0 0
0 0 0
0 0 0
0 0 0
-153.19 123.383 46.8501
0 0 0
-14.1473 11.3951 4.69205
0 0 0
0 0 0
0 0 0
0 0 0
0 0 0
0 0 0
0 0 0
0 0 0
0 0 0
-114.6 349.47 -77.3125
0 0 0
-193.768 103.957 -91.8681
0 0 0
0 0 0
0 0 0
0 0 0
-386.646 448.957 -112.031
0 0 0
0 0 0
0 0 0
-1575.68 -1389.13 -235.692
0 0 0
0 0 0
0 0 0
0 0 0
0 0 0
-84.1232 103.65 -63.4425
0 0 0
0 0 0
0 0 0
-138.677 114.627 6.84162
0 0 0
0 0 0
0 0 0
0 0 0
0 0 0
-30.2516 13.4957 -3.8772
0 0 0
0 0 0
0 0 0
0 0 0
0 0 0
0 0 0
0 0 0
0 0 0
0 0 0
0 0 0
-78.3197 243.234 68.3437
0 0 0
-566.358 323.736 54.4019
0 0 0
0 0 0
-988.422 2273.95 110.738
0 0 0
0 0 0
0 0 0
-2100.61 279.462 201.555
-733.988 678.674 144.397
0 0 0
0 0 0
-211.129 260.438 80.6637
0 0 0
-37.7349 35.1754 31.3078
0 0 0
0 0 0
0 0 0
-465.075 300.299 115.478
0 0 0
0 0 0
0 0 0
0 0 0
0 0 0
-136.992 199.822 120.429
0 0 0
-40.8247 6.46327 10.4029
0 0 0
0 0 0
0 0 0
0 0 0
0 0 0
0 0 0
0 0 0
0 0 0
0 0 0
0 0 0
0 0 0
-790.464 2393.53 -689.428
0 0 0
0 0 0
0 0 0
0 0 0
-575.728 333.69 -170.981
-213.542 370.703 -109.845
0 0 0
0 0 0
-530.73 305.163 -148.156
-1119.09 713.106 -405.181
-434.824 254.719 -99.8384
-32.0179 55.2714 -12.6385
0 0 0
0 0 0
-403.359 29.8737 127.772
0 0 0
0 0 0
0 0 0
0 0 0
0 0 0
-55.1786 142.905 -78.9846
0 0 0
0 0 0
0 0 0
-15.8791 22.2128 -3.20305
0 0 0
-37.788 7.47277 -10.3674
0 0 0
0 0 0
0 0 0
0 0 0
0 0 0
0 0 0
0 0 0
0 0 0
-69.3689 157.23 18.3517
0 0 0
-622.534 1202.16 243.172
0 0 0
-1548.15 2869.88 546.959
0 0 0
0 0 0
-293.276 283.893 -54.6764
-47.6531 124.596 -12.3987
-578.297 341.697 136.248
0 0 0
0 0 0
0 0 0
0 0 0
0 0 0
0 0 0
0 0 0
0 0 0
0 0 0
0 0 0
0 0 0
213.678 1353.21 -93.6368
0 0 0
-12.7257 128.596 14.1242
0 0 0
-137.073 91.5589 33.9056
0 0 0
-97.3733 168.792 57.5837
0 0 0
-14.6059 2.95717 3.21502
0 0 0
0 0 0
0 0 0
0 0 0
0 0 0
0 0 0
0 0 0
0 0 0
0 0 0
0 0 0
0 0 0
0 0 0
0 0 0
0 0 0
0 0 0
0 0 0
0 0 0
0 0 0
0 0 0
0 0 0
0 0 0
0 0 0
0 0 0
0 0 0
0 0 0
0 0 0
0 0 0
0 0 0
0 0 0
0 0 0
0 0 0
0 0 0
0 0 0
0 0 0
0 0 0
0 0 0
0 0 0
0 0 0
0 0 0
0 0 0
0 0 0
0 0 0
0 0 0
0 0 0
0 0 0
0 0 0
0 0 0
0 0 0
0 0 0
0 0 0
0 0 0
0 0 0
0 0 0
0 0 0
0 0 0
0 0 0
0 0 0
0 0 0
0 0 0
0 0 0
0 0 0
0 0 0
0 0 0
0 0 0
0 0 0
0 0 0
0 0 0
0 0 0
0 0 0
0 0 0
0 0 0
0 0 0
0 0 0
0 0 0
0 0 0
0 0 0
0 0 0
0 0 0
0 0 0
0 0 0
0 0 0
0 0 0
0 0 0
0 0 0
0 0 0
0 0 0
0 0 0
0 0 0
0 0 0
0 0 0
0 0 0
0 0 0
0 0 0
0 0 0
0 0 0
0 0 0
0 0 0
0 0 0
0 0 0
0 0 0
0 0 0
0 0 0
0 0 0
0 0 0
0 0 0
0 0 0
0 0 0
0 0 0
0 0 0
0 0 0
0 0 0
0 0 0
0 0 0
0 0 0
0 0 0
0 0 0
0 0 0
0 0 0
0 0 0
0 0 0
0 0 0
-51.4722 -67.0475 -21.0834
-109.684 -189.449 -56.6291
-57.515 -47.4533 -17.2626
0 0 0
0 0 0
0 0 0
0 0 0
0 0 0
0 0 0
0 0 0
-59.73 -48.0158 -28.178
0 0 0
0 0 0
0 0 0
0 0 0
-68.1763 -50.8596 -21.991
0 0 0
-252.017 -189.414 -64.1556
0 0 0
0 0 0
0 0 0
0 0 0
0 0 0
-366.187 -280.181 -110.072
0 0 0
0 0 0
0 0 0
-108.648 -122.923 -77.6546
0 0 0
-57.0854 -13.1254 -10.8136
0 0 0
-37.3245 -32.7089 6.63927
0 0 0
0 0 0
0 0 0
0 0 0
0 0 0
0 0 0
-117.291 -67.6897 34.9337
-138.32 -238.91 71.2402
0 0 0
0 0 0
-60.5498 -43.4989 7.83041
0 0 0
0 0 0
0 0 0
0 0 0
0 0 0
0 0 0
0 0 0
0 0 0
-274.026 -526.919 47.2137
0 0 0
-103.82 -77.4501 33.4183
0 0 0
0 0 0
0 0 0
-158.209 110.51 38.6106
0 0 0
0 0 0
0 0 0
0 0 0
0 0 0
-32.1864 -24.7175 10.4352
0 0 0
-44.0385 -24.3489 -5.33676
0 0 0
-104.651 -30.6895 29.7123
0 0 0
-39.6928 -0.0122518 -21.1686
0 0 0
0 0 0
0 0 0
0 0 0
0 0 0
0 0 0
0 0 0
0 0 0
0 0 0
0 0 0
0 0 0
0 0 0
0 0 0
-113.94 -97.2935 -28.6359
0 0 0
-1609.99 -1497.3 -730.165
0 0 0
0 0 0
0 0 0
0 0 0
0 0 0
0 0 0
0 0 0
-462.78 -520.095 -256.567
0 0 0
-284.818 -359.309 -117.571
0 0 0
0 0 0
0 0 0
-108.62 -215.31 -72.3165
0 0 0
-63.2442 -105.877 -20.4605
0 0 0
-49.073 -37.6933 -15.9689
0 0 0
-31.8442 -9.73348 -3.67342
0 0 0
0 0 0
0 0 0
0 0 0
0 0 0
0 0 0
0 0 0
0 0 0
0 0 0
0 0 0
-43.1807 -10312.6 -1864.74
0 0 0
0 0 0
-3815.8 -4730.11 532.358
0 0 0
0 0 0
0 0 0
0 0 0
0 0 0
-692.994 -378.482 -12.3493
0 0 0
0 0 0
-652.443 -529.112 188.9
0 0 0
0 0 0
0 0 0
0 0 0
-42.5927 -90.6696 -4.93334
0 0 0
0 0 0
0 0 0
-236.24 -239.786 100.873
0 0 0
-167.156 -128.103 54.2926
0 0 0
-25.5388 -19.6166 8.32121
0 0 0
-59.5176 -45.7654 19.3701
0 0 0
0 0 0
0 0 0
0 0 0
0 0 0
0 0 0
0 0 0
0 0 0
-6928.64 5292.05 -2611.46
-449.693 -359.833 -143.496
0 0 0
-694.795 -120.71 -4.32942
-1064.91 -1783.67 138.873
0 0 0
0 0 0
0 0 0
0 0 0
0 0 0
-160.774 -288.937 -102.971
0 0 0
-46.4533 -54.9663 -2.59873
0 0 0
0 0 0
0 0 0
0 0 0
0 0 0
28.268 -173.147 -65.2422
0 0 0
0 0 0
0 0 0
0 0 0
-884.261 -356.451 -332.604
-10.9329 -38.6101 1.84162
0 0 0
-21.4323 -12.9256 -5.52053
0 0 0
-186.049 -66.173 -54.0137
0 0 0
0 0 0
0 0 0
0 0 0
0 0 0
0 0 0
0 0 0
0 0 0
0 0 0
0 0 0
0 0 0
0 0 0
0 0 0
0 0 0
0 0 0
0 0 0
0 0 0
-26.5529 -39.6198 -8.87026
0 0 0
0 0 0
0 0 0
0 0 0
0 0 0
0 0 0
0 0 0
-57.0187 -111.207 44.0461
0 0 0
-124.167 -67.4367 61.1072
0 0 0
0 0 0
-104.319 -17.5918 10.199
0 0 0
-89.9523 -88.4259 79.6777
0 0 0
0 0 0
0 0 0
0 0 0
0 0 0
0 0 0
-83.49 -99.6897 43.7998
0 0 0
0 0 0
0 0 0
0 0 0
0 0 0
0 0 0
0 0 0
-33.848 -203.988 -45.1033
0 0 0
0 0 0
0 0 0
0 0 0
0 0 0
0 0 0
0 0 0
0 0 0
0 0 0
0 0 0
-534.931 -612.092 -210.638
0 0 0
-617.354 -535.233 -129.864
0 0 0
0 0 0
0 0 0
0 0 0
0 0 0
-505.555 -303.704 283.617
0 0 0
-134.685 -324.321 -29.1097
0 0 0
0 0 0
0 0 0
0 0 0
0 0 0
0 0 0
0 0 0
-78.3384 -112.894 -4.604
0 0 0
0 0 0
0 0 0
0 0 0
0 0 0
0 0 0
0 0 0
0 0 0
0 0 0
0 0 0
0 0 0
-221.713 -150.427 -53.4101
0 0 0
-11844.9 -2384.9 -4812.93
-20762.9 -48713.5 -167780
0 0 0
-1721.19 -2151.91 521.257
0 0 0
0 0 0
-576.006 -659.092 226.268
0 0 0
0 0 0
0 0 0
-67.2183 -70.2669 69.5231
0 0 0
-145.69 -170.824 111.267
0 0 0
0 0 0
0 0 0
-248.93 90.1917 145.601
0 0 0
-161.456 -178.649 18.8363
0 0 0
0 0 0
0 0 0
-356.696 -121.687 28.9283
0 0 0
-65.6315 -124.249 33.6165
0 0 0
-61.6363 -23.002 -0.889523
0 0 0
0 0 0
0 0 0
0 0 0
0 0 0
0 0 0
0 0 0
0 0 0
0 0 0
0 0 0
0 0 0
0 0 0
-788.771 -892.591 159.524
0 0 0
0 0 0
0 0 0
0 0 0
0 0 0
0 0 0
0 0 0
0 0 0
0 0 0
0 0 0
0 0 0
0 0 0
0 0 0
0 0 0
0 0 0
0 0 0
0 0 0
0 0 0
0 0 0
0 0 0
0 0 0
0 0 0
0 0 0
0 0 0
0 0 0
0 0 0
0 0 0
0 0 0
0 0 0
0 0 0
0 0 0
0 0 0
0 0 0
0 0 0
0 0 0
0 0 0
0 0 0
0 0 0
0 0 0
0 0 0
0 0 0
0 0 0
0 0 0
0 0 0
0 0 0
0 0 0
0 0 0
0 0 0
0 0 0
0 0 0
0 0 0
0 0 0
0 0 0
0 0 0
0 0 0
0 0 0
0 0 0
0 0 0
0 0 0
0 0 0
0 0 0
0 0 0
0 0 0
0 0 0
0 0 0
0 0 0
0 0 0
0 0 0
0 0 0
0 0 0
0 0 0
0 0 0
0 0 0
0 0 0
0 0 0
-631.593 -66.2458 -163.613
0 0 0
0 0 0
0 0 0
-483.713 -180.619 -69.2831
0 0 0
0 0 0
-1924.49 4881.87 -962.53
0 0 0
0 0 0
0 0 0
0 0 0
0 0 0
0 0 0
-2530.45 922.139 -534.221
0 0 0
0 0 0
0 0 0
-2673.91 845.703 988.49
0 0 0
0 0 0
-48.1889 5.0602 -12.3205
0 0 0
-102.359 -20.0029 -21.804
0 0 0
0 0 0
0 0 0
0 0 0
0 0 0
0 0 0
0 0 0
0 0 0
0 0 0
0 0 0
0 0 0
0 0 0
0 0 0
   </PointData>
   <CellData>
   </CellData>
   <Points>
    <DataArray type="Float64" Name="Points" NumberOfComponents="3"/>
4 3.25 0
4.07071 3.32071 0
4.14142 3.39142 0
4.21213 3.46213 0
4.28284 3.53284 0
4.35355 3.60355 0
4.42426 3.67426 0
4.49498 3.74498 0
4.56569 3.81569 0
4.6364 3.8864 0
4.70711 3.95711 0
4.77782 4.02782 0
4.84853 4.09853 0
4.91924 4.16924 0
4.98995 4.23995 0
5.06066 4.31066 0
5.13137 4.38137 0
5.20208 4.45208 0
5.27279 4.52279 0
5.3435 4.5935 0
5.41421 4.66421 0
5.48492 4.73492 0
5.55563 4.80563 0
5.62635 4.87635 0
5.69706 4.94706 0
5.76777 5.01777 0
5.83848 5.08848 0
5.90919 5.15919 0
5.9799 5.2299 0
6.05061 5.30061 0
6.12132 5.37132 0
6.19203 5.44203 0
6.26274 5.51274 0
6.33345 5.58345 0
6.40416 5.65416 0
6.47487 5.72487 0
6.54558 5.79558 0
6.6163 5.8663 0
4 3.25 0.1
4.07071 3.32071 0.1
4.14142 3.39142 0.1
4.21213 3.46213 0.1
4.28284 3.53284 0.1
4.35355 3.60355 0.1
4.42426 3.67426 0.1
4.49498 3.74498 0.1
4.56569 3.81569 0.1
4.6364 3.8864 0.1
4.70711 3.95711 0.1
4.77782 4.02782 0.1
4.84853 4.09853 0.1
4.91924 4.16924 0.1
4.98995 4.23995 0.1
5.06066 4.31066 0.1
5.13137 4.38137 0.1
5.20208 4.45208 0.1
5.27279 4.52279 0.1
5.3435 4.5935 0.1
5.41421 4.66421 0.1
5.48492 4.73492 0.1
5.55563 4.80563 0.1
5.62635 4.87635 0.1
5.69706 4.94706 0.1
5.76777 5.01777 0.1
5.83848 5.08848 0.1
5.90919 5.15919 0.1
5.9799 5.2299 0.1
6.05061 5.30061 0.1
6.12132 5.37132 0.1
6.19203 5.44203 0.1
6.26274 5.51274 0.1
6.33345 5.58345 0.1
6.40416 5.65416 0.1
6.47487 5.72487 0.1
6.54558 5.79558 0.1
6.6163 5.8663 0.1
4 3.25 0.2
4.07071 3.32071 0.2
4.14142 3.39142 0.2
4.21213 3.46213 0.2
4.28284 3.53284 0.2
4.35355 3.60355 0.2
4.42426 3.67426 0.2
4.49498 3.74498 0.2
4.56569 3.81569 0.2
4.6364 3.8864 0.2
4.70711 3.95711 0.2
4.77782 4.02782 0.2
4.84853 4.09853 0.2
4.91924 4.16924 0.2
4.98995 4.23995 0.2
5.06066 4.31066 0.2
5.13137 4.38137 0.2
5.20208 4.45208 0.2
5.27279 4.52279 0.2
5.3435 4.5935 0.2
5.41421 4.66421 0.2
5.48492 4.73492 0.2
5.55563 4.80563 0.2
5.62635 4.87635 0.2
5.69706 4.94706 0.2
5.76777 5.01777 0.2
5.83848 5.08848 0.2
5.90919 5.15919 0.2
5.9799 5.2299 0.2
6.05061 5.30061 0.2
6.12132 5.37132 0.2
6.19203 5.44203 0.2
6.26274 5.51274 0.2
6.33345 5.58345 0.2
6.40416 5.65416 0.2
6.47487 5.72487 0.2
6.54558 5.79558 0.2
6.6163 5.8663 0.2
4 3.25 0.3
4.07071 3.32071 0.3
4.14142 3.39142 0.3
4.21213 3.46213 0.3
4.28284 3.53284 0.3
4.35355 3.60355 0.3
4.42426 3.67426 0.3
4.49498 3.74498 0.3
4.56569 3.81569 0.3
4.6364 3.8864 0.3
4.70711 3.95711 0.3
4.77782 4.02782 0.3
4.84853 4.09853 0.3
4.91924 4.16924 0.3
4.98995 4.23995 0.3
5.06066 4.31066 0.3
5.13137 4.38137 0.3
5.20208 4.45208 0.3
5.27279 4.52279 0.3
5.3435 4.5935 0.3
5.41421 4.66421 0.3
5.48492 4.73492 0.3
5.55563 4.80563 0.3
5.62635 4.87635 0.3
5.69706 4.94706 0.3
5.76777 5.01777 0.3
5.83848 5.08848 0.3
5.90919 5.15919 0.3
5.9799 5.2299 0.3
6.05061 5.30061 0.3
6.12132 5.37132 0.3
6.19203 5.44203 0.3
6.26274 5.51274 0.3
6.33345 5.58345 0.3
6.40416 5.65416 0.3
6.47487 5.72487 0.3
6.54558 5.79558 0.3
6.6163 5.8663 0.3
4 3.25 0.4
4.07071 3.32071 0.4
4.14142 3.39142 0.4
4.21213 3.46213 0.4
4.28284 3.53284 0.4
4.35355 3.60355 0.4
4.42426 3.67426 0.4
4.49498 3.74498 0.4
4.56569 3.81569 0.4
4.6364 3.8864 0.4
4.70711 3.95711 0.4
4.77782 4.02782 0.4
4.84853 4.09853 0.4
4.91924 4.16924 0.4
4.98995 4.23995 0.4
5.06066 4.31066 0.4
5.13137 4.38137 0.4
5.20208 4.45208 0.4
5.27279 4.52279 0.4
5.3435 4.5935 0.4
5.41421 4.66421 0.4
5.48492 4.73492 0.4
5.55563 4.80563 0.4
5.62635 4.87635 0.4
5.69706 4.94706 0.4
5.76777 5.01777 0.4
5.83848 5.08848 0.4
5.90919 5.15919 0.4
5.9799 5.2299 0.4
6.05061 5.30061 0.4
6.12132 5.37132 0.4
6.19203 5.44203 0.4
6.26274 5.51274 0.4
6.33345 5.58345 0.4
6.40416 5.65416 0.4
6.47487 5.72487 0.4
6.54558 5.79558 0.4
6.6163 5.8663 0.4
4 3.25 0.5
4.07071 3.32071 0.5
4.14142 3.39142 0.5
4.21213 3.46213 0.5
4.28284 3.53284 0.5
4.35355 3.60355 0.5
4.42426 3.67426 0.5
4.49498 3.74498 0.5
4.56569 3.81569 0.5
4.6364 3.8864 0.5
4.70711 3.95711 0.5
4.77782 4.02782 0.5
4.84853 4.09853 0.5
4.91924 4.16924 0.5
4.98995 4.23995 0.5
5.06066 4.31066 0.5
5.13137 4.38137 0.5
5.20208 4.45208 0.5
5.27279 4.52279 0.5
5.3435 4.5935 0.5
5.41421 4.66421 0.5
5.48492 4.73492 0.5
5.55563 4.80563 0.5
5.62635 4.87635 0.5
5.69706 4.94706 0.5
5.76777 5.01777 0.5
5.83848 5.08848 0.5
5.90919 5.15919 0.5
5.9799 5.2299 0.5
6.05061 5.30061 0.5
6.12132 5.37132 0.5
6.19203 5.44203 0.5
6.26274 5.51274 0.5
6.33345 5.58345 0.5
6.40416 5.65416 0.5
6.47487 5.72487 0.5
6.54558 5.79558 0.5
6.6163 5.8663 0.5
4 3.25 0.6
4.07071 3.32071 0.6
4.14142 3.39142 0.6
4.21213 3.46213 0.6
4.28284 3.53284 0.6
4.35355 3.60355 0.6
4.42426 3.67426 0.6
4.49498 3.74498 0.6
4.56569 3.81569 0.6
4.6364 3.8864 0.6
4.70711 3.95711 0.6
4.77782 4.02782 0.6
4.84853 4.09853 0.6
4.91924 4.16924 0.6
4.98995 4.23995 0.6
5.06066 4.31066 0.6
5.13137 4.38137 0.6
5.20208 4.45208 0.6
5.27279 4.52279 0.6
5.3435 4.5935 0.6
5.41421 4.66421 0.6
5.48492 4.73492 0.6
5.55563 4.80563 0.6
5.62635 4.87635 0.6
5.69706 4.94706 0.6
5.76777 5.01777 0.6
5.83848 5.08848 0.6
5.90919 5.15919 0.6
5.9799 5.2299 0.6
6.05061 5.30061 0.6
6.12132 5.37132 0.6
6.19203 5.44203 0.6
6.26274 5.51274 0.6
6.33345 5.58345 0.6
6.40416 5.65416 0.6
6.47487 5.72487 0.6
6.54558 5.79558 0.6
6.6163 5.8663 0.6
4 3.25 0.7
4.07071 3.32071 0.7
4.14142 3.39142 0.7
4.21213 3.46213 0.7
4.28284 3.53284 0.7
4.35355 3.60355 0.7
4.42426 3.67426 0.7
4.49498 3.74498 0.7
4.56569 3.81569 0.7
4.6364 3.8864 0.7
4.70711 3.95711 0.7
4.77782 4.02782 0.7
4.84853 4.09853 0.7
4.91924 4.16924 0.7
4.98995 4.23995 0.7
5.06066 4.31066 0.7
5.13137 4.38137 0.7
5.20208 4.45208 0.7
5.27279 4.52279 0.7
5.3435 4.5935 0.7
5.41421 4.66421 0.7
5.48492 4.73492 0.7
5.55563 4.80563 0.7
5.62635 4.87635 0.7
5.69706 4.94706 0.7
5.76777 5.01777 0.7
5.83848 5.08848 0.7
5.90919 5.15919 0.7
5.9799 5.2299 0.7
6.05061 5.30061 0.7
6.12132 5.37132 0.7
6.19203 5.44203 0.7
6.26274 5.51274 0.7
6.33345 5.58345 0.7
6.40416 5.65416 0.7
6.47487 5.72487 0.7
6.54558 5.79558 0.7
6.6163 5.8663 0.7
4 3.25 0.8
4.07071 3.32071 0.8
4.14142 3.39142 0.8
4.21213 3.46213 0.8
4.28284 3.53284 0.8
4.35355 3.60355 0.8
4.42426 3.67426 0.8
4.49498 3.74498 0.8
4.56569 3.81569 0.8
4.6364 3.8864 0.8
4.70711 3.95711 0.8
4.77782 4.02782 0.8
4.84853 4.09853 0.8
4.91924 4.16924 0.8
4.98995 4.23995 0.8
5.06066 4.31066 0.8
5.13137 4.38137 0.8
5.20208 4.45208 0.8
5.27279 4.52279 0.8
5.3435 4.5935 0.8
5.41421 4.66421 0.8
5.48492 4.73492 0.8
5.55563 4.80563 0.8
5.62635 4.87635 0.8
5.69706 4.94706 0.8
5.76777 5.01777 0.8
5.83848 5.08848 0.8
5.90919 5.15919 0.8
5.9799 5.2299 0.8
6.05061 5.30061 0.8
6.12132 5.37132 0.8
6.19203 5.44203 0.8
6.26274 5.51274 0.8
6.33345 5.58345 0.8
6.40416 5.65416 0.8
6.47487 5.72487 0.8
6.54558 5.79558 0.8
6.6163 5.8663 0.8
4 3.25 0.9
4.07071 3.32071 0.9
4.14142 3.39142 0.9
4.21213 3.46213 0.9
4.28284 3.53284 0.9
4.35355 3.60355 0.9
4.42426 3.67426 0.9
4.49498 3.74498 0.9
4.56569 3.81569 0.9
4.6364 3.8864 0.9
4.70711 3.95711 0.9
4.77782 4.02782 0.9
4.84853 4.09853 0.9
4.91924 4.16924 0.9
4.98995 4.23995 0.9
5.06066 4.31066 0.9
5.13137 4.38137 0.9
5.20208 4.45208 0.9
5.27279 4.52279 0.9
5.3435 4.5935 0.9
5.41421 4.66421 0.9
5.48492 4.73492 0.9
5.55563 4.80563 0.9
5.62635 4.87635 0.9
5.69706 4.94706 0.9
5.76777 5.01777 0.9
5.83848 5.08848 0.9
5.90919 5.15919 0.9
5.9799 5.2299 0.9
6.05061 5.30061 0.9
6.12132 5.37132 0.9
6.19203 5.44203 0.9
6.26274 5.51274 0.9
6.33345 5.58345 0.9
6.40416 5.65416 0.9
6.47487 5.72487 0.9
6.54558 5.79558 0.9
6.6163 5.8663 0.9
4 3.25 1
4.07071 3.32071 1
4.14142 3.39142 1
4.21213 3.46213 1
4.28284 3.53284 1
4.35355 3.60355 1
4.42426 3.67426 1
4.49498 3.74498 1
4.56569 3.81569 1
4.6364 3.8864 1
4.70711 3.95711 1
4.77782 4.02782 1
4.84853 4.09853 1
4.91924 4.16924 1
4.98995 4.23995 1
5.06066 4.31066 1
5.13137 4.38137 1
5.20208 4.45208 1
5.27279 4.52279 1
5.3435 4.5935 1
5.41421 4.66421 1
5.48492 4.73492 1
5.55563 4.80563 1
5.62635 4.87635 1
5.69706 4.94706 1
5.76777 5.01777 1
5.83848 5.08848 1
5.90919 5.15919 1
5.9799 5.2299 1
6.05061 5.30061 1
6.12132 5.37132 1
6.19203 5.44203 1
6.26274 5.51274 1
6.33345 5.58345 1
6.40416 5.65416 1
6.47487 5.72487 1
6.54558 5.79558 1
6.6163 5.8663 1
4 2.75 0
4.07071 2.67929 0
4.14142 2.60858 0
4.21213 2.53787 0
4.28284 2.46716 0
4.35355 2.39645 0
4.42426 2.32574 0
4.49498 2.25502 0
4.56569 2.18431 0
4.6364 2.1136 0
4.70711 2.04289 0
4.77782 1.97218 0
4.84853 1.90147 0
4.91924 1.83076 0
4.98995 1.76005 0
5.06066 1.68934 0
5.13137 1.61863 0
5.20208 1.54792 0
5.27279 1.47721 0
5.3435 1.4065 0
5.41421 1.33579 0
5.48492 1.26508 0
5.55563 1.19436 0
5.62635 1.12365 0
5.69706 1.05294 0
5.76777 0.982233 0
5.83848 0.911522 0
5.90919 0.840812 0
5.9799 0.770101 0
6.05061 0.69939 0
6.12132 0.62868 0
6.19203 0.557969 0
6.26274 0.487258 0
6.33345 0.416548 0
6.40416 0.345837 0
6.47487 0.275126 0
6.54558 0.204416 0
6.6163 0.133705 0
4 2.75 0.1
4.07071 2.67929 0.1
4.14142 2.60858 0.1