<?xml version="1.0"?>
<VTKFile type="UnstructuredGrid" version="0.1" byte_order="LittleEndian" compressor="vtkZLibDataCompressor">
 <UnstructuredGrid GhostLevel="0">
  <Piece NumberOfPoints="880" NumberOfCells="880">
   <PointData>
    <DataArray type="Float64" Name="radius"/>
0.1
0.1
0.1
0.1
0.1
0.1
0.1
0.1
0.1
0.1
0.1
0.1
0.1
0.1
0.1
0.1
0.1
0.1
0.1
0.1
0.1
0.1
0.1
0.1
0.1
0.1
0.1
0.1
0.1
0.1
0.1
0.1
0.1
0.1
0.1
0.1
0.1
0.1
0.1
0.1
0.1
0.1
0.1
0.1
0.1
0.1
0.1
0.1
0.1
0.1
0.1
0.1
0.1
0.1
0.1
0.1
0.1
0.1
0.1
0.1
0.1
0.1
0.1
0.1
0.1
0.1
0.1
0.1
0.1
0.1
0.1
0.1
0.1
0.1
0.1
0.1
0.1
0.1
0.1
0.1
0.1
0.1
0.1
0.1
0.1
0.1
0.1
0.1
0.1
0.1
0.1
0.1
0.1
0.1
0.1
0.1
0.1
0.1
0.1
0.1
0.1
0.1
0.1
0.1
0.1
0.1
0.1
0.1
0.1
0.1
0.1
0.1
0.1
0.1
0.1
0.1
0.1
0.1
0.1
0.1
0.1
0.1
0.1
0.1
0.1
0.1
0.1
0.1
0.1
0.1
0.1
0.1
0.1
0.1
0.1
0.1
0.1
0.1
0.1
0.1
0.1
0.1
0.1
0.1
0.1
0.1
0.1
0.1
0.1
0.1
0.1
0.1
0.1
0.1
0.1
0.1
0.1
0.1
0.1
0.1
0.1
0.1
0.1
0.1
0.1
0.1
0.1
0.1
0.1
0.1
0.1
0.1
0.1
0.1
0.1
0.1
0.1
0.1
0.1
0.1
0.1
0.1
0.1
0.1
0.1
0.1
0.1
0.1
0.1
0.1
0.1
0.1
0.1
0.1
0.1
0.1
0.1
0.1
0.1
0.1
0.1
0.1
0.1
0.1
0.1
0.1
0.1
0.1
0.1
0.1
0.1
0.1
0.1
0.1
0.1
0.1
0.1
0.1
0.1
0.1
0.1
0.1
0.1
0.1
0.1
0.1
0.1
0.1
0.1
0.1
0.1
0.1
0.1
0.1
0.1
0.1
0.1
0.1
0.1
0.1
0.1
0.1
0.1
0.1
0.1
0.1
0.1
0.1
0.1
0.1
0.1
0.1
0.1
0.1
0.1
0.1
0.1
0.1
0.1
0.1
0.1
0.1
0.1
0.1
0.1
0.1
0.1
0.1
0.1
0.1
0.1
0.1
0.1
0.1
0.1
0.1
0.1
0.1
0.1
0.1
0.1
0.1
0.1
0.1
0.1
0.1
0.1
0.1
0.1
0.1
0.1
0.1
0.1
0.1
0.1
0.1
0.1
0.1
0.1
0.1
0.1
0.1
0.1
0.1
0.1
0.1
0.1
0.1
0.1
0.1
0.1
0.1
0.1
0.1
0.1
0.1
0.1
0.1
0.1
0.1
0.1
0.1
0.1
0.1
0.1
0.1
0.1
0.1
0.1
0.1
0.1
0.1
0.1
0.1
0.1
0.1
0.1
0.1
0.1
0.1
0.1
0.1
0.1
0.1
0.1
0.1
0.1
0.1
0.1
0.1
0.1
0.1
0.1
0.1
0.1
0.1
0.1
0.1
0.1
0.1
0.1
0.1
0.1
0.1
0.1
0.1
0.1
0.1
0.1
0.1
0.1
0.1
0.1
0.1
0.1
0.1
0.1
0.1
0.1
0.1
0.1
0.1
0.1
0.1
0.1
0.1
0.1
0.1
0.1
0.1
0.1
0.1
0.1
0.1
0.1
0.1
0.1
0.1
0.1
0.1
0.1
0.1
0.1
0.1
0.1
0.1
0.1
0.1
0.1
0.1
0.1
0.1
0.1
0.1
0.1
0.1
0.1
0.1
0.1
0.1
0.1
0.1
0.1
0.1
0.1
0.1
0.1
0.1
0.1
0.1
0.1
0.1
0.1
0.1
0.1
0.1
0.1
0.1
0.1
0.1
0.1
0.1
0.1
0.1
0.1
0.1
0.1
0.1
0.1
0.1
0.1
0.1
0.1
0.1
0.1
0.1
0.1
0.1
0.1
0.1
0.1
0.1
0.1
0.1
0.1
0.1
0.1
0.1
0.1
0.1
0.1
0.1
0.1
0.1
0.1
0.1
0.1
0.1
0.1
0.1
0.1
0.1
0.1
0.1
0.1
0.1
0.1
0.1
0.1
0.1
0.1
0.1
0.1
0.1
0.1
0.1
0.1
0.1
0.1
0.1
0.1
0.1
0.1
0.1
0.1
0.1
0.1
0.1
0.1
0.1
0.1
0.1
0.1
0.1
0.1
0.1
0.1
0.1
0.1
0.1
0.1
0.1
0.1
0.1
0.1
0.1
0.1
0.1
0.1
0.1
0.1
0.1
0.1
0.1
0.1
0.1
0.1
0.1
0.1
0.1
0.1
0.1
0.1
0.1
0.1
0.1
0.1
0.1
0.1
0.1
0.1
0.1
0.1
0.1
0.1
0.1
0.1
0.1
0.1
0.1
0.1
0.1
0.1
0.1
0.1
0.1
0.1
0.1
0.1
0.1
0.1
0.1
0.1
0.1
0.1
0.1
0.1
0.1
0.1
0.1
0.1
0.1
0.1
0.1
0.1
0.1
0.1
0.1
0.1
0.1
0.1
0.1
0.1
0.1
0.1
0.1
0.1
0.1
0.1
0.1
0.1
0.1
0.1
0.1
0.1
0.1
0.1
0.1
0.1
0.1
0.1
0.1
0.1
0.1
0.1
0.1
0.1
0.1
0.1
0.1
0.1
0.1
0.1
0.1
0.1
0.1
0.1
0.1
0.1
0.1
0.1
0.1
0.1
0.1
0.1
0.1
0.1
0.1
0.1
0.1
0.1
0.1
0.1
0.1
0.1
0.1
0.1
0.1
0.1
0.1
0.1
0.1
0.1
0.1
0.1
0.1
0.1
0.1
0.1
0.1
0.1
0.1
0.1
0.1
0.1
0.1
0.1
0.1
0.1
0.1
0.1
0.1
0.1
0.1
0.1
0.1
0.1
0.1
0.1
0.1
0.1
0.1
0.1
0.1
0.1
0.1
0.1
0.1
0.1
0.1
0.1
0.1
0.1
0.1
0.1
0.1
0.1
0.1
0.1
0.1
0.1
0.1
0.1
0.1
0.1
0.1
0.1
0.1
0.1
0.1
0.1
0.1
0.1
0.1
0.1
0.1
0.1
0.1
0.1
0.1
0.1
0.1
0.1
0.1
0.1
0.1
0.1
0.1
0.1
0.1
0.1
0.1
0.1
0.1
0.1
0.1
0.1
0.1
0.1
0.1
0.1
0.1
0.1
0.1
0.1
0.1
0.1
0.1
0.1
0.1
0.1
0.1
0.1
0.1
0.1
0.1
0.1
0.1
0.1
0.1
0.1
0.1
0.1
0.1
0.1
0.1
0.1
0.1
0.1
0.1
0.1
0.1
0.1
0.1
0.1
0.1
0.1
0.1
0.1
0.1
0.1
0.1
0.1
0.1
0.1
0.1
0.1
0.1
0.1
0.1
0.1
0.1
0.1
0.1
0.1
0.1
0.1
0.1
0.1
0.1
0.1
0.1
0.1
0.1
0.1
0.1
0.1
0.1
0.1
0.1
0.1
0.1
0.1
0.1
0.1
0.1
0.1
0.1
0.1
0.1
0.1
0.1
0.1
0.1
0.1
0.1
0.1
0.1
0.1
0.1
0.1
0.1
0.1
0.1
0.1
0.1
0.1
0.1
0.1
0.1
0.1
0.1
0.1
0.1
0.1
0.1
0.1
0.1
0.1
0.1
0.1
0.1
0.1
0.1
0.1
0.1
0.1
0.1
0.1
0.1
0.1
0.1
0.1
0.1
0.1
0.1
0.1
0.1
0.1
0.1
0.1
0.1
0.1
0.1
0.1
0.1
0.1
0.1
0.1
0.1
    <DataArray type="Float64" Name="objectIndex"/>
0
1
2
3
4
5
6
7
8
9
10
11
12
13
14
15
16
17
18
19
20
21
22
23
24
25
26
27
28
29
30
31
32
33
34
35
36
37
38
39
40
41
42
43
44
45
46
47
48
49
50
51
52
53
54
55
56
57
58
59
60
61
62
63
64
65
66
67
68
69
70
71
72
73
74
75
76
77
78
79
80
81
82
83
84
85
86
87
88
89
90
91
92
93
94
95
96
97
98
99
100
101
102
103
104
105
106
107
108
109
110
111
112
113
114
115
116
117
118
119
120
121
122
123
124
125
126
127
128
129
130
131
132
133
134
135
136
137
138
139
140
141
142
143
144
145
146
147
148
149
150
151
152
153
154
155
156
157
158
159
160
161
162
163
164
165
166
167
168
169
170
171
172
173
174
175
176
177
178
179
180
181
182
183
184
185
186
187
188
189
190
191
192
193
194
195
196
197
198
199
200
201
202
203
204
205
206
207
208
209
210
211
212
213
214
215
216
217
218
219
220
221
222
223
224
225
226
227
228
229
230
231
232
233
234
235
236
237
238
239
240
241
242
243
244
245
246
247
248
249
250
251
252
253
254
255
256
257
258
259
260
261
262
263
264
265
266
267
268
269
270
271
272
273
274
275
276
277
278
279
280
281
282
283
284
285
286
287
288
289
290
291
292
293
294
295
296
297
298
299
300
301
302
303
304
305
306
307
308
309
310
311
312
313
314
315
316
317
318
319
320
321
322
323
324
325
326
327
328
329
330
331
332
333
334
335
336
337
338
339
340
341
342
343
344
345
346
347
348
349
350
351
352
353
354
355
356
357
358
359
360
361
362
363
364
365
366
367
368
369
370
371
372
373
374
375
376
377
378
379
380
381
382
383
384
385
386
387
388
389
390
391
392
393
394
395
396
397
398
399
400
401
402
403
404
405
406
407
408
409
410
411
412
413
414
415
416
417
418
419
420
421
422
423
424
425
426
427
428
429
430
431
432
433
434
435
436
437
438
439
440
441
442
443
444
445
446
447
448
449
450
451
452
453
454
455
456
457
458
459
460
461
462
463
464
465
466
467
468
469
470
471
472
473
474
475
476
477
478
479
480
481
482
483
484
485
486
487
488
489
490
491
492
493
494
495
496
497
498
499
500
501
502
503
504
505
506
507
508
509
510
511
512
513
514
515
516
517
518
519
520
521
522
523
524
525
526
527
528
529
530
531
532
533
534
535
536
537
538
539
540
541
542
543
544
545
546
547
548
549
550
551
552
553
554
555
556
557
558
559
560
561
562
563
564
565
566
567
568
569
570
571
572
573
574
575
576
577
578
579
580
581
582
583
584
585
586
587
588
589
590
591
592
593
594
595
596
597
598
599
600
601
602
603
604
605
606
607
608
609
610
611
612
613
614
615
616
617
618
619
620
621
622
623
624
625
626
627
628
629
630
631
632
633
634
635
636
637
638
639
640
641
642
643
644
645
646
647
648
649
650
651
652
653
654
655
656
657
658
659
660
661
662
663
664
665
666
667
668
669
670
671
672
673
674
675
676
677
678
679
680
681
682
683
684
685
686
687
688
689
690
691
692
693
694
695
696
697
698
699
700
701
702
703
704
705
706
707
708
709
710
711
712
713
714
715
716
717
718
719
720
721
722
723
724
725
726
727
728
729
730
731
732
733
734
735
736
737
738
739
740
741
742
743
744
745
746
747
748
749
750
751
752
753
754
755
756
757
758
759
760
761
762
763
764
765
766
767
768
769
770
771
772
773
774
775
776
777
778
779
780
781
782
783
784
785
786
787
788
789
790
791
792
793
794
795
796
797
798
799
800
801
802
803
804
805
806
807
808
809
810
811
812
813
814
815
816
817
818
819
820
821
822
823
824
825
826
827
828
829
830
831
832
833
834
835
836
837
838
839
840
841
842
843
844
845
846
847
848
849
850
851
852
853
854
855
856
857
858
859
860
861
862
863
864
865
866
867
868
869
870
871
872
873
874
875
876
877
878
879
    <DataArray type="Float64" Name="v" NumberOfComponents="3"/>
0 0 0
0 0 0
0 0 0
0 0 0
0 0 0
0 0 0
0 0 0
0 0 0
0 0 0
0 0 0
0 0 0
0 0 0
0 0 0
0 0 0
0 0 0
0 0 0
0 0 0
0 0 0
0 0 0
0 0 0
0 0 0
0 0 0
0 0 0
0 0 0
0 0 0
0 0 0
0 0 0
0 0 0
0 0 0
0 0 0
0 0 0
0 0 0
0 0 0
0 0 0
0 0 0
0 0 0
0 0 0
0 0 0
0 0 0
0 0 0
0 0 0
0 0 0
0 0 0
0 0 0
0 0 0
0 0 0
0 0 0
0 0 0
0 0 0
0 0 0
0 0 0
0 0 0
0 0 0
0 0 0
0 0 0
0 0 0
0 0 0
0 0 0
0 0 0
0 0 0
0 0 0
0 0 0
0 0 0
0 0 0
0 0 0
0 0 0
0 0 0
0 0 0
0 0 0
0 0 0
0 0 0
0 0 0
0 0 0
0 0 0
0 0 0
0 0 0
0 0 0
0 0 0
0 0 0
0 0 0
0 0 0
0 0 0
0 0 0
0 0 0
0 0 0
0 0 0
0 0 0
0 0 0
0 0 0
0 0 0
0 0 0
0 0 0
0 0 0
0 0 0
0 0 0
0 0 0
0 0 0
0 0 0
0 0 0
0 0 0
0 0 0
0 0 0
0 0 0
0 0 0
0 0 0
0 0 0
0 0 0
0 0 0
0 0 0
0 0 0
0 0 0
0 0 0
0 0 0
0 0 0
0 0 0
0 0 0
0 0 0
0 0 0
0 0 0
0 0 0
0 0 0
0 0 0
0 0 0
0 0 0
0 0 0
0 0 0
0 0 0
0 0 0
0 0 0
0 0 0
0 0 0
0 0 0
0 0 0
0 0 0
0 0 0
0 0 0
0 0 0
0 0 0
0 0 0
0 0 0
0 0 0
0 0 0
0 0 0
0 0 0
0 0 0
0 0 0
0 0 0
0 0 0
0 0 0
0 0 0
0 0 0
0 0 0
0 0 0
0 0 0
0 0 0
0 0 0
0 0 0
0 0 0
0 0 0
0 0 0
0 0 0
0 0 0
0 0 0
0 0 0
0 0 0
0 0 0
0 0 0
0 0 0
0 0 0
0 0 0
0 0 0
0 0 0
0 0 0
0 0 0
0 0 0
0 0 0
0 0 0
0 0 0
0 0 0
0 0 0
0 0 0
0 0 0
0 0 0
0 0 0
0 0 0
0 0 0
0 0 0
0 0 0
0 0 0
0 0 0
0 0 0
0 0 0
0 0 0
0 0 0
0 0 0
0 0 0
0 0 0
0 0 0
0 0 0
0 0 0
0 0 0
0 0 0
0 0 0
0 0 0
0 0 0
0 0 0
0 0 0
0 0 0
0 0 0
0 0 0
0 0 0
0 0 0
0 0 0
0 0 0
0 0 0
0 0 0
0 0 0
0 0 0
0 0 0
0 0 0
0 0 0
0 0 0
0 0 0
0 0 0
0 0 0
0 0 0
0 0 0
0 0 0
0 0 0
0 0 0
0 0 0
0 0 0
0 0 0
0 0 0
0 0 0
0 0 0
0 0 0
0 0 0
0 0 0
0 0 0
0 0 0
0 0 0
0 0 0
0 0 0
0 0 0
0 0 0
0 0 0
0 0 0
0 0 0
0 0 0
0 0 0
0 0 0
0 0 0
0 0 0
0 0 0
0 0 0
0 0 0
0 0 0
0 0 0
0 0 0
0 0 0
0 0 0
0 0 0
0 0 0
0 0 0
0 0 0
0 0 0
0 0 0
0 0 0
0 0 0
0 0 0
0 0 0
0 0 0
0 0 0
0 0 0
0 0 0
0 0 0
0 0 0
0 0 0
0 0 0
0 0 0
0 0 0
0 0 0
0 0 0
0 0 0
0 0 0
0 0 0
0 0 0
0 0 0
0 0 0
0 0 0
0 0 0
0 0 0
0 0 0
0 0 0
0 0 0
0 0 0
0 0 0
0 0 0
0 0 0
0 0 0
0 0 0
0 0 0
0 0 0
0 0 0
0 0 0
0 0 0
0 0 0
0 0 0
0 0 0
0 0 0
0 0 0
0 0 0
0 0 0
0 0 0
0 0 0
0 0 0
0 0 0
0 0 0
0 0 0
0 0 0
0 0 0
0 0 0
0 0 0
0 0 0
0 0 0
0 0 0
0 0 0
0 0 0
0 0 0
0 0 0
0 0 0
0 0 0
0 0 0
0 0 0
0 0 0
0 0 0
0 0 0
0 0 0
0 0 0
0 0 0
0 0 0
0 0 0
0 0 0
0 0 0
0 0 0
0 0 0
0 0 0
0 0 0
0 0 0
0 0 0
0 0 0
0 0 0
0 0 0
0 0 0
0 0 0
0 0 0
0 0 0
0 0 0
0 0 0
0 0 0
0 0 0
0 0 0
0 0 0
0 0 0
0 0 0
0 0 0
0 0 0
0 0 0
0 0 0
0 0 0
0 0 0
0 0 0
0 0 0
0 0 0
0 0 0
0 0 0
0 0 0
0 0 0
0 0 0
0 0 0
0 0 0
0 0 0
0 0 0
0 0 0
0 0 0
0 0 0
0 0 0
0 0 0
0 0 0
0 0 0
0 0 0
0 0 0
0 0 0
0 0 0
0 0 0
0 0 0
0 0 0
0 0 0
0 0 0
0 0 0
0 0 0
0 0 0
0 0 0
0 0 0
0 0 0
0 0 0
0 0 0
0 0 0
0 0 0
0 0 0
0 0 0
0 0 0
0 0 0
0 0 0
0 0 0
0 0 0
0 0 0
0 0 0
0 0 0
0 0 0
0 0 0
0 0 0
0 0 0
0 0 0
0 0 0
0 0 0
0 0 0
0 0 0
0 0 0
0 0 0
0 0 0
0 0 0
0 0 0
0 0 0
0 0 0
0 0 0
0 0 0
0 0 0
0 0 0
0 0 0
0 0 0
0 0 0
0 0 0
0 0 0
0 0 0
0 0 0
0 0 0
0 0 0
0 0 0
0 0 0
0 0 0
0 0 0
0 0 0
0 0 0
0 0 0
0 0 0
0 0 0
0 0 0
0 0 0
0 0 0
0 0 0
0 0 0
0 0 0
0 0 0
0 0 0
0 0 0
0 0 0
0 0 0
0 0 0
0 0 0
0 0 0
0 0 0
0 0 0
0 0 0
0 0 0
0 0 0
0 0 0
0 0 0
0 0 0
0 0 0
0 0 0
0 0 0
0 0 0
0 0 0
0 0 0
0 0 0
0 0 0
0 0 0
0 0 0
0 0 0
0 0 0
0 0 0
0 0 0
0 0 0
0 0 0
0 0 0
0 0 0
0 0 0
0 0 0
0 0 0
0 0 0
0 0 0
0 0 0
0 0 0
0 0 0
0 0 0
0 0 0
0 0 0
0 0 0
0 0 0
0 0 0
0 0 0
0 0 0
0 0 0
0 0 0
0 0 0
0 0 0
0 0 0
0 0 0
0 0 0
0 0 0
0 0 0
0 0 0
0 0 0
0 0 0
0 0 0
0 0 0
0 0 0
0 0 0
0 0 0
0 0 0
0 0 0
0 0 0
0 0 0
0 0 0
0 0 0
0 0 0
0 0 0
0 0 0
0 0 0
0 0 0
0 0 0
0 0 0
0 0 0
0 0 0
0 0 0
0 0 0
0 0 0
0 0 0
0 0 0
0 0 0
0 0 0
0 0 0
0 0 0
0 0 0
0 0 0
0 0 0
0 0 0
0 0 0
0 0 0
0 0 0
0 0 0
0 0 0
0 0 0
0 0 0
0 0 0
0 0 0
0 0 0
0 0 0
0 0 0
0 0 0
0 0 0
0 0 0
0 0 0
0 0 0
0 0 0
0 0 0
0 0 0
0 0 0
0 0 0
0 0 0
0 0 0
0 0 0
0 0 0
0 0 0
0 0 0
0 0 0
0 0 0
0 0 0
0 0 0
0 0 0
0 0 0
0 0 0
0 0 0
0 0 0
0 0 0
0 0 0
0 0 0
0 0 0
0 0 0
0 0 0
0 0 0
0 0 0
0 0 0
0 0 0
0 0 0
0 0 0
0 0 0
0 0 0
0 0 0
0 0 0
0 0 0
0 0 0
0 0 0
0 0 0
0 0 0
0 0 0
0 0 0
0 0 0
0 0 0
0 0 0
0 0 0
0 0 0
0 0 0
0 0 0
0 0 0
0 0 0
0 0 0
0 0 0
0 0 0
0 0 0
0 0 0
0 0 0
0 0 0
0 0 0
0 0 0
0 0 0
0 0 0
0 0 0
0 0 0
0 0 0
0 0 0
0 0 0
0 0 0
0 0 0
0 0 0
0 0 0
0 0 0
0 0 0
0 0 0
0 0 0
0 0 0
0 0 0
0 0 0
0 0 0
0 0 0
0 0 0
0 0 0
0 0 0
0 0 0
0 0 0
0 0 0
0 0 0
0 0 0
0 0 0
0 0 0
0 0 0
0 0 0
0 0 0
0 0 0
0 0 0
0 0 0
0 0 0
0 0 0
0 0 0
0 0 0
0 0 0
0 0 0
0 0 0
0 0 0
0 0 0
0 0 0
0 0 0
0 0 0
0 0 0
0 0 0
0 0 0
0 0 0
0 0 0
0 0 0
0 0 0
0 0 0
0 0 0
0 0 0
0 0 0
0 0 0
0 0 0
0 0 0
0 0 0
0 0 0
0 0 0
0 0 0
0 0 0
0 0 0
0 0 0
0 0 0
0 0 0
0 0 0
0 0 0
0 0 0
0 0 0
0 0 0
0 0 0
0 0 0
0 0 0
0 0 0
0 0 0
0 0 0
0 0 0
0 0 0
0 0 0
0 0 0
0 0 0
0 0 0
0 0 0
0 0 0
0 0 0
0 0 0
0 0 0
0 0 0
0 0 0
0 0 0
0 0 0
0 0 0
0 0 0
0 0 0
0 0 0
0 0 0
0 0 0
0 0 0
0 0 0
0 0 0
0 0 0
0 0 0
0 0 0
0 0 0
0 0 0
0 0 0
0 0 0
0 0 0
0 0 0
0 0 0
0 0 0
0 0 0
0 0 0
0 0 0
0 0 0
0 0 0
0 0 0
0 0 0
0 0 0
0 0 0
0 0 0
0 0 0
0 0 0
0 0 0
0 0 0
0 0 0
0 0 0
0 0 0
0 0 0
0 0 0
0 0 0
0 0 0
0 0 0
0 0 0
0 0 0
0 0 0
0 0 0
0 0 0
0 0 0
0 0 0
0 0 0
0 0 0
0 0 0
0 0 0
0 0 0
0 0 0
0 0 0
0 0 0
0 0 0
0 0 0
0 0 0
0 0 0
0 0 0
0 0 0
0 0 0
0 0 0
0 0 0
0 0 0
0 0 0
0 0 0
0 0 0
0 0 0
0 0 0
0 0 0
0 0 0
0 0 0
0 0 0
0 0 0
0 0 0
0 0 0
0 0 0
0 0 0
0 0 0
0 0 0
0 0 0
0 0 0
0 0 0
0 0 0
0 0 0
0 0 0
0 0 0
0 0 0
0 0 0
0 0 0
0 0 0
0 0 0
0 0 0
0 0 0
0 0 0
0 0 0
0 0 0
0 0 0
0 0 0
0 0 0
0 0 0
0 0 0
0 0 0
0 0 0
0 0 0
0 0 0
0 0 0
0 0 0
0 0 0
0 0 0
0 0 0
0 0 0
0 0 0
0 0 0
0 0 0
0 0 0
0 0 0
0 0 0
0 0 0
0 0 0
0 0 0
0 0 0
0 0 0
0 0 0
0 0 0
0 0 0
0 0 0
0 0 0
0 0 0
0 0 0
0 0 0
0 0 0
0 0 0
0 0 0
0 0 0
0 0 0
0 0 0
0 0 0
0 0 0
0 0 0
0 0 0
0 0 0
0 0 0
    <DataArray type="Float64" Name="Force" NumberOfComponents="3"/>
0 0 0
0 0 0
0 0 0
0 0 0
0 0 0
0 0 0
0 0 0
0 0 0
0 0 0
0 0 0
0 0 0
0 0 0
0 0 0
0 0 0
0 0 0
0 0 0
0 0 0
0 0 0
0 0 0
0 0 0
0 0 0
0 0 0
0 0 0
0 0 0
0 0 0
0 0 0
0 0 0
0 0 0
0 0 0
0 0 0
0 0 0
0 0 0
0 0 0
0 0 0
0 0 0
0 0 0
0 0 0
0 0 0
0 0 0
-494.259 607.32 -199.997
0 0 0
-169.907 175.533 -22.1624
0 0 0
-1787.82 1546.55 -770.111
0 0 0
0 0 0
0 0 0
0 0 0
-52.9576 116.63 -25.9535
0 0 0
-13.1584 29.1798 -7.01161
0 0 0
0 0 0
-604.401 699.721 -123.215
0 0 0
0 0 0
-496.082 296.004 -112.588
0 0 0
0 0 0
0 0 0
-277.458 338.989 -112.21
0 0 0
-446.918 44.0413 43.5206
0 0 0
0 0 0
-39.7959 33.3146 -19.5242
0 0 0
0 0 0
-265.516 220.455 -28.3905
0 0 0
-25.9492 18.7183 -8.26688
0 0 0
0 0 0
0 0 0
0 0 0
0 0 0
0 0 0
-119.292 146.579 49.4517
0 0 0
-157.977 212.174 46.055
0 0 0
0 0 0
0 0 0
0 0 0
-197.141 402.373 33.8044
0 0 0
0 0 0
0 0 0
-25.0979 56.1663 15.5866
0 0 0
0 0 0
0 0 0
0 0 0
0 0 0
-77.1575 76.7038 -16.717
0 0 0
-108.914 78.6579 30.769
0 0 0
-5.57965 16.8467 2.29953
0 0 0
0 0 0
0 0 0
0 0 0
-64.0063 31.4107 9.81249
0 0 0
0 0 0
0 0 0
0 0 0
-57.0518 25.9525 4.37518
0 0 0
0 0 0
0 0 0
0 0 0
0 0 0
0 0 0
162.87 1579.13 -182.772
0 0 0
0 0 0
-552.839 254.313 -143.063
0 0 0
-355.121 463.731 -121.789
0 0 0
0 0 0
0 0 0
0 0 0
-977.381 1505.47 -133.812
0 0 0
-36.7204 14.4389 -10.1415
0 0 0
0 0 0
0 0 0
0 0 0
0 0 0
0 0 0
0 0 0
0 0 0
-58.676 34.3788 -17.0816
0 0 0
-10.7748 6.36275 -2.77125
0 0 0
-16.3355 9.56945 -5.10185
0 0 0
0 0 0
-74.3176 36.9702 -12.4537
0 0 0
-53.0384 -9.39295 2.85849
0 0 0
0 0 0
0 0 0
0 0 0
0 0 0
0 0 0
0 0 0
-146.837 61.4794 102.013
0 0 0
0 0 0
-49.6782 84.3746 34.8205
0 0 0
0 0 0
0 0 0
0 0 0
-60.1115 31.3927 15.6833
0 0 0
0 0 0
0 0 0
-35.652 3.05648 9.96575
0 0 0
0 0 0
0 0 0
0 0 0
-287.999 279.389 116.58
0 0 0
-86.5249 52.312 13.8345
0 0 0
-39.8265 23.4129 10.8031
0 0 0
-41.2465 24.179 12.2238
0 0 0
-37.7605 22.5188 8.64041
0 0 0
0 0 0
-140.751 64.7637 42.5362
0 0 0
-23.9136 14.5942 7.23553
0 0 0
0 0 0
0 0 0
0 0 0
0 0 0
0 0 0
0 0 0
0 0 0
-71.5193 113.8 -18.1454
0 0 0
0 0 0
0 0 0
0 0 0
0 0 0
0 0 0
0 0 0
-3362.85 1816.54 -1091.51
0 0 0
0 0 0
0 0 0
0 0 0
0 0 0
-92.4121 47.9735 -23.2938
0 0 0
0 0 0
0 0 0
0 0 0
0 0 0
0 0 0
0 0 0
0 0 0
-10.2035 6.6611 -2.90944
0 0 0
0 0 0
0 0 0
0 0 0
0 0 0
-26.826 17.3686 -7.8529
0 0 0
0 0 0
0 0 0
0 0 0
0 0 0
0 0 0
0 0 0
0 0 0
0 0 0
0 0 0
0 0 0
-2284.37 1394.63 642.784
0 0 0
0 0 0
-1731.62 1137.28 655.436
0 0 0
0 0 0
0 0 0
-650.559 445.252 166.346
0 0 0
0 0 0
0 0 0
-24.4112 4.91035 4.63753
0 0 0
-596.353 18.7798 -8.59328
0 0 0
-19.1098 3.22902 4.62376
0 0 0
-339.878 137.729 103.364
0 0 0
0 0 0
-10.2613 6.69884 2.92573
0 0 0
0 0 0
0 0 0
-215.754 177.358 67.5059
0 0 0
-14.7089 9.55078 4.06246
0 0 0
0 0 0
0 0 0
0 0 0
0 0 0
0 0 0
0 0 0
-99.5724 1882.78 -365.339
0 0 0
-93.4812 57.0637 -20.538
0 0 0
0 0 0
0 0 0
0 0 0
0 0 0
-2029.22 1237.49 99.3518
0 0 0
-50.7393 100.275 -10.827
0 0 0
-294.952 274.639 -6.23594
0 0 0
-58.9844 9.53119 -17.0413
0 0 0
-375.375 215.528 -78.1748
0 0 0
0 0 0
0 0 0
0 0 0
0 0 0
0 0 0
0 0 0
-55.4219 65.7695 -31.636
0 0 0
0 0 0
0 0 0
-59.9141 305.405 -403.684
140.628 397.356 158.792
-49.3575 121.874 -33.8383
0 0 0
0 0 0
0 0 0
0 0 0
0 0 0
0 0 0
0 0 0
0 0 0
0 0 0
-43.8338 4.59742 9.1786
0 0 0
0 0 0
-86.9982 346.805 28.4735
0 0 0
0 0 0
0 0 0
0 0 0
0 0 0
0 0 0
-351.777 332.854 123.388
0 0 0
0 0 0
0 0 0
0 0 0
0 0 0
-3436.81 -1776.19 252.72
0 0 0
0 0 0
0 0 0
-95.5059 60.6936 21.5717
0 0 0
0 0 0
0 0 0
0 0 0
0 0 0
0 0 0
0 0 0
0 0 0
0 0 0
0 0 0
0 0 0
0 0 0
0 0 0
0 0 0
0 0 0
0 0 0
0 0 0
0 0 0
0 0 0
0 0 0
0 0 0
0 0 0
0 0 0
0 0 0
0 0 0
0 0 0
0 0 0
0 0 0
0 0 0
0 0 0
0 0 0
0 0 0
0 0 0
0 0 0
0 0 0
0 0 0
0 0 0
0 0 0
0 0 0
0 0 0
0 0 0
0 0 0
0 0 0
0 0 0
0 0 0
0 0 0
0 0 0
0 0 0
0 0 0
0 0 0
0 0 0
0 0 0
0 0 0
0 0 0
0 0 0
0 0 0
0 0 0
0 0 0
0 0 0
0 0 0
0 0 0
0 0 0
0 0 0
0 0 0
0 0 0
0 0 0
0 0 0
0 0 0
0 0 0
0 0 0
0 0 0
0 0 0
0 0 0
0 0 0
0 0 0
0 0 0
0 0 0
0 0 0
0 0 0
0 0 0
0 0 0
0 0 0
0 0 0
0 0 0
0 0 0
0 0 0
0 0 0
0 0 0
0 0 0
0 0 0
0 0 0
0 0 0
0 0 0
0 0 0
0 0 0
0 0 0
0 0 0
0 0 0
0 0 0
0 0 0
0 0 0
0 0 0
0 0 0
0 0 0
0 0 0
0 0 0
0 0 0
0 0 0
0 0 0
0 0 0
0 0 0
0 0 0
0 0 0
0 0 0
0 0 0
0 0 0
0 0 0
0 0 0
0 0 0
0 0 0
0 0 0
0 0 0
0 0 0
0 0 0
0 0 0
0 0 0
0 0 0
0 0 0
0 0 0
0 0 0
0 0 0
-1973.34 -489.108 -298.979
0 0 0
0 0 0
-85.9942 -22.7854 -12.6458
0 0 0
0 0 0
0 0 0
-233.283 -867.679 -210.483
0 0 0
-28.4657 -106.491 -25.4397
0 0 0
0 0 0
0 0 0
-525.058 -95.7798 -134.628
0 0 0
0 0 0
0 0 0
-131.337 -21.4793 -26.793
0 0 0
-192.279 -119.588 -45.4988
0 0 0
0 0 0
0 0 0
-106.033 -87.0655 -23.3722
0 0 0
0 0 0
0 0 0
-152.471 -29.3321 -87.9266
0 0 0
0 0 0
-25.7856 -12.8471 -7.3788
0 0 0
0 0 0
0 0 0
0 0 0
0 0 0
-1420.57 -845.685 373.844
0 0 0
-1007.26 -195.192 135.145
0 0 0
0 0 0
0 0 0
0 0 0
0 0 0
0 0 0
-277.916 -1033.58 250.069
0 0 0
-47.744 -179.651 45.7567
0 0 0
-674.686 -475.34 152.329
0 0 0
0 0 0
0 0 0
-414.897 -234.098 86.0572
0 0 0
0 0 0
0 0 0
0 0 0
0 0 0
-38.1771 -53.4798 20.2407
0 0 0
-37.545 -49.9374 8.54078
0 0 0
0 0 0
0 0 0
-126.364 -80.3817 38.6924
0 0 0
0 0 0
-43.8129 -19.2382 10.4299
0 0 0
0 0 0
0 0 0
0 0 0
0 0 0
-335.51 -944.327 -188.101
0 0 0
-512.567 -759.229 -189.478
0 0 0
0 0 0
-899.916 -159.015 -71.1799
-2288.44 -1910.61 -177.913
0 0 0
-95.2715 -667.818 -141.369
0 0 0
-103.564 -217.975 -93.0703
0 0 0
-666.115 -383.549 -232.539
0 0 0
-1931.48 -1413.81 -462.607
0 0 0
0 0 0
0 0 0
0 0 0
-44.0738 -13.6005 -12.9678
0 0 0
0 0 0
0 0 0
0 0 0
-84.6664 -37.8393 -0.257646
0 0 0
0 0 0
0 0 0
0 0 0
0 0 0
-212.415 -164.878 -8.80724
0 0 0
0 0 0
0 0 0
0 0 0
0 0 0
0 0 0
0 0 0
-96.9782 -183.785 -29.3071
0 0 0
0 0 0
0 0 0
0 0 0
-1141.09 -646.214 333.422
-1598.74 -2727 806.969
0 0 0
0 0 0
-136.537 -166.366 23.9751
-208.087 -553.666 2.39436
0 0 0
0 0 0
0 0 0
0 0 0
0 0 0
0 0 0
-170.239 -357.502 -121.356
0 0 0
-21.3625 -5.83704 4.68734
0 0 0
0 0 0
-242.208 -254.165 80.8962
0 0 0
-220.808 -107.072 52.7552
0 0 0
-75.1562 -22.7646 9.63727
0 0 0
-198.742 -167.361 76.2267
0 0 0
0 0 0
0 0 0
0 0 0
0 0 0
0 0 0
0 0 0
0 0 0
0 0 0
0 0 0
-543.043 -462.374 -188.088
0 0 0
0 0 0
0 0 0
0 0 0
0 0 0
0 0 0
0 0 0
0 0 0
-39.5334 -12.7558 -6.5927
0 0 0
-169.275 -116.51 -43.9997
0 0 0
0 0 0
0 0 0
0 0 0
0 0 0
0 0 0
-36.4751 -7.21798 -3.35026
0 0 0
0 0 0
0 0 0
0 0 0
-106.021 -344.545 -105.452
0 0 0
0 0 0
-104.941 -109.537 -39.2365
0 0 0
-99.214 -111.067 0.213162
0 0 0
0 0 0
0 0 0
0 0 0
0 0 0
0 0 0
0 0 0
0 0 0
0 0 0
-380.597 -151.165 91.58
0 0 0
-32.3565 -54.9951 7.03857
0 0 0
0 0 0
-313.698 -98.3447 36.8527
0 0 0
-1763.41 -1436.74 379.35
0 0 0
-41.5461 -12.7425 9.03796
0 0 0
0 0 0
0 0 0
0 0 0
0 0 0
-130.838 -85.731 28.098
0 0 0
0 0 0
-53.9139 -14.2902 6.82743
0 0 0
0 0 0
-1271.45 -819.537 468.81
0 0 0
-53.4729 -168.3 33.5457
0 0 0
0 0 0
-154.387 -161.148 57.5829
0 0 0
0 0 0
0 0 0
-49.0688 -72.5209 3.6412
0 0 0
0 0 0
0 0 0
0 0 0
0 0 0
0 0 0
-7.78234 -959.447 -32.1166
0 0 0
-79.6957 -24.5048 -10.1805
0 0 0
0 0 0
0 0 0
0 0 0
0 0 0
0 0 0
0 0 0
0 0 0
0 0 0
0 0 0
0 0 0
0 0 0
-49.3294 12.2643 10.1472
0 0 0
-55.5484 -40.5048 -19.9258
0 0 0
0 0 0
0 0 0
0 0 0
0 0 0
-141.763 -58.2602 4.92024
0 0 0
-32.3943 -45.1941 -4.14186
0 0 0
0 0 0
0 0 0
0 0 0
0 0 0
-13.8727 -25.2926 -5.70613
0 0 0
0 0 0
0 0 0
0 0 0
0 0 0
0 0 0
0 0 0
0 0 0
0 0 0
0 0 0
0 0 0
0 0 0
-5623.89 -7870.54 1797.23
0 0 0
-305.35 -246.65 233.932
-898.337 -1517.94 334.429
0 0 0
-1089.17 -1257.07 316.06
0 0 0
-1217.52 -450.222 87.7861
0 0 0
-38.64 -10.5271 -11.3456
0 0 0
-22.0918 -14.6446 6.85079
0 0 0
-214.682 -139.549 63.8227
0 0 0
-120.533 -66.3827 57.3806
0 0 0
-197.759 -82.3543 55.3309
0 0 0
0 0 0
0 0 0
-158.48 -243.44 168.749
0 0 0
-183.213 -65.4286 30.8332
0 0 0
-64.8815 -19.4475 16.2747
0 0 0
0 0 0
0 0 0
0 0 0
0 0 0
0 0 0
0 0 0
0 0 0
0 0 0
0 0 0
0 0 0
0 0 0
0 0 0
0 0 0
0 0 0
0 0 0
0 0 0
0 0 0
0 0 0
0 0 0
0 0 0
0 0 0
0 0 0
0 0 0
0 0 0
0 0 0
0 0 0
0 0 0
0 0 0
0 0 0
0 0 0
0 0 0
0 0 0
0 0 0
0 0 0
0 0 0
0 0 0
0 0 0
0 0 0
0 0 0
0 0 0
0 0 0
0 0 0
0 0 0
0 0 0
0 0 0
0 0 0
0 0 0
0 0 0
0 0 0
0 0 0
0 0 0
0 0 0
0 0 0
0 0 0
0 0 0
0 0 0
0 0 0
0 0 0
0 0 0
0 0 0
0 0 0
0 0 0
0 0 0
0 0 0
0 0 0
0 0 0
0 0 0
0 0 0
0 0 0
0 0 0
0 0 0
0 0 0
0 0 0
0 0 0
0 0 0
0 0 0
0 0 0
0 0 0
0 0 0
0 0 0
0 0 0
0 0 0
0 0 0
0 0 0
0 0 0
0 0 0
0 0 0
0 0 0
0 0 0
0 0 0
0 0 0
0 0 0
0 0 0
0 0 0
0 0 0
0 0 0
0 0 0
0 0 0
0 0 0
0 0 0
0 0 0
-6071.95 974.429 -1300.95
0 0 0
0 0 0
0 0 0
-2906.5 1250.36 1032.07
0 0 0
-240.827 167.667 57.9334
0 0 0
0 0 0
-181.841 -17.6157 98.7741
0 0 0
0 0 0
0 0 0
0 0 0
0 0 0
0 0 0
0 0 0
0 0 0
0 0 0
0 0 0
0 0 0
0 0 0
0 0 0
   </PointData>
   <CellData>
   </CellData>
   <Points>
    <DataArray type="Float64" Name="Points" NumberOfComponents="3"/>
4 3.25 0
4.07071 3.32071 0
4.14142 3.39142 0
4.21213 3.46213 0
4.28284 3.53284 0
4.35355 3.60355 0
4.42426 3.67426 0
4.49498 3.74498 0
4.56569 3.81569 0
4.6364 3.8864 0
4.70711 3.95711 0
4.77782 4.02782 0
4.84853 4.09853 0
4.91924 4.16924 0
4.98995 4.23995 0
5.06066 4.31066 0
5.13137 4.38137 0
5.20208 4.45208 0
5.27279 4.52279 0
5.3435 4.5935 0
5.41421 4.66421 0
5.48492 4.73492 0
5.55563 4.80563 0
5.62635 4.87635 0
5.69706 4.94706 0
5.76777 5.01777 0
5.83848 5.08848 0
5.90919 5.15919 0
5.9799 5.2299 0
6.05061 5.30061 0
6.12132 5.37132 0
6.19203 5.44203 0
6.26274 5.51274 0
6.33345 5.58345 0
6.40416 5.65416 0
6.47487 5.72487 0
6.54558 5.79558 0
6.6163 5.8663 0
4 3.25 0.1
4.07071 3.32071 0.1
4.14142 3.39142 0.1
4.21213 3.46213 0.1
4.28284 3.53284 0.1
4.35355 3.60355 0.1
4.42426 3.67426 0.1
4.49498 3.74498 0.1
4.56569 3.81569 0.1
4.6364 3.8864 0.1
4.70711 3.95711 0.1
4.77782 4.02782 0.1
4.84853 4.09853 0.1
4.91924 4.16924 0.1
4.98995 4.23995 0.1
5.06066 4.31066 0.1
5.13137 4.38137 0.1
5.20208 4.45208 0.1
5.27279 4.52279 0.1
5.3435 4.5935 0.1
5.41421 4.66421 0.1
5.48492 4.73492 0.1
5.55563 4.80563 0.1
5.62635 4.87635 0.1
5.69706 4.94706 0.1
5.76777 5.01777 0.1
5.83848 5.08848 0.1
5.90919 5.15919 0.1
5.9799 5.2299 0.1
6.05061 5.30061 0.1
6.12132 5.37132 0.1
6.19203 5.44203 0.1
6.26274 5.51274 0.1
6.33345 5.58345 0.1
6.40416 5.65416 0.1
6.47487 5.72487 0.1
6.54558 5.79558 0.1
6.6163 5.8663 0.1
4 3.25 0.2
4.07071 3.32071 0.2
4.14142 3.39142 0.2
4.21213 3.46213 0.2
4.28284 3.53284 0.2
4.35355 3.60355 0.2
4.42426 3.67426 0.2
4.49498 3.74498 0.2
4.56569 3.81569 0.2
4.6364 3.8864 0.2
4.70711 3.95711 0.2
4.77782 4.02782 0.2
4.84853 4.09853 0.2
4.91924 4.16924 0.2
4.98995 4.23995 0.2
5.06066 4.31066 0.2
5.13137 4.38137 0.2
5.20208 4.45208 0.2
5.27279 4.52279 0.2
5.3435 4.5935 0.2
5.41421 4.66421 0.2
5.48492 4.73492 0.2
5.55563 4.80563 0.2
5.62635 4.87635 0.2
5.69706 4.94706 0.2
5.76777 5.01777 0.2
5.83848 5.08848 0.2
5.90919 5.15919 0.2
5.9799 5.2299 0.2
6.05061 5.30061 0.2
6.12132 5.37132 0.2
6.19203 5.44203 0.2
6.26274 5.51274 0.2
6.33345 5.58345 0.2
6.40416 5.65416 0.2
6.47487 5.72487 0.2
6.54558 5.79558 0.2
6.6163 5.8663 0.2
4 3.25 0.3
4.07071 3.32071 0.3
4.14142 3.39142 0.3
4.21213 3.46213 0.3
4.28284 3.53284 0.3
4.35355 3.60355 0.3
4.42426 3.67426 0.3
4.49498 3.74498 0.3
4.56569 3.81569 0.3
4.6364 3.8864 0.3
4.70711 3.95711 0.3
4.77782 4.02782 0.3
4.84853 4.09853 0.3
4.91924 4.16924 0.3
4.98995 4.23995 0.3
5.06066 4.31066 0.3
5.13137 4.38137 0.3
5.20208 4.45208 0.3
5.27279 4.52279 0.3
5.3435 4.5935 0.3
5.41421 4.66421 0.3
5.48492 4.73492 0.3
5.55563 4.80563 0.3
5.62635 4.87635 0.3
5.69706 4.94706 0.3
5.76777 5.01777 0.3
5.83848 5.08848 0.3
5.90919 5.15919 0.3
5.9799 5.2299 0.3
6.05061 5.30061 0.3
6.12132 5.37132 0.3
6.19203 5.44203 0.3
6.26274 5.51274 0.3
6.33345 5.58345 0.3
6.40416 5.65416 0.3
6.47487 5.72487 0.3
6.54558 5.79558 0.3
6.6163 5.8663 0.3
4 3.25 0.4
4.07071 3.32071 0.4
4.14142 3.39142 0.4
4.21213 3.46213 0.4
4.28284 3.53284 0.4
4.35355 3.60355 0.4
4.42426 3.67426 0.4
4.49498 3.74498 0.4
4.56569 3.81569 0.4
4.6364 3.8864 0.4
4.70711 3.95711 0.4
4.77782 4.02782 0.4
4.84853 4.09853 0.4
4.91924 4.16924 0.4
4.98995 4.23995 0.4
5.06066 4.31066 0.4
5.13137 4.38137 0.4
5.20208 4.45208 0.4
5.27279 4.52279 0.4
5.3435 4.5935 0.4
5.41421 4.66421 0.4
5.48492 4.73492 0.4
5.55563 4.80563 0.4
5.62635 4.87635 0.4
5.69706 4.94706 0.4
5.76777 5.01777 0.4
5.83848 5.08848 0.4
5.90919 5.15919 0.4
5.9799 5.2299 0.4
6.05061 5.30061 0.4
6.12132 5.37132 0.4
6.19203 5.44203 0.4
6.26274 5.51274 0.4
6.33345 5.58345 0.4
6.40416 5.65416 0.4
6.47487 5.72487 0.4
6.54558 5.79558 0.4
6.6163 5.8663 0.4
4 3.25 0.5
4.07071 3.32071 0.5
4.14142 3.39142 0.5
4.21213 3.46213 0.5
4.28284 3.53284 0.5
4.35355 3.60355 0.5
4.42426 3.67426 0.5
4.49498 3.74498 0.5
4.56569 3.81569 0.5
4.6364 3.8864 0.5
4.70711 3.95711 0.5
4.77782 4.02782 0.5
4.84853 4.09853 0.5
4.91924 4.16924 0.5
4.98995 4.23995 0.5
5.06066 4.31066 0.5
5.13137 4.38137 0.5
5.20208 4.45208 0.5
5.27279 4.52279 0.5
5.3435 4.5935 0.5
5.41421 4.66421 0.5
5.48492 4.73492 0.5
5.55563 4.80563 0.5
5.62635 4.87635 0.5
5.69706 4.94706 0.5
5.76777 5.01777 0.5
5.83848 5.08848 0.5
5.90919 5.15919 0.5
5.9799 5.2299 0.5
6.05061 5.30061 0.5
6.12132 5.37132 0.5
6.19203 5.44203 0.5
6.26274 5.51274 0.5
6.33345 5.58345 0.5
6.40416 5.65416 0.5
6.47487 5.72487 0.5
6.54558 5.79558 0.5
6.6163 5.8663 0.5
4 3.25 0.6
4.07071 3.32071 0.6
4.14142 3.39142 0.6
4.21213 3.46213 0.6
4.28284 3.53284 0.6
4.35355 3.60355 0.6
4.42426 3.67426 0.6
4.49498 3.74498 0.6
4.56569 3.81569 0.6
4.6364 3.8864 0.6
4.70711 3.95711 0.6
4.77782 4.02782 0.6
4.84853 4.09853 0.6
4.91924 4.16924 0.6
4.98995 4.23995 0.6
5.06066 4.31066 0.6
5.13137 4.38137 0.6
5.20208 4.45208 0.6
5.27279 4.52279 0.6
5.3435 4.5935 0.6
5.41421 4.66421 0.6
5.48492 4.73492 0.6
5.55563 4.80563 0.6
5.62635 4.87635 0.6
5.69706 4.94706 0.6
5.76777 5.01777 0.6
5.83848 5.08848 0.6
5.90919 5.15919 0.6
5.9799 5.2299 0.6
6.05061 5.30061 0.6
6.12132 5.37132 0.6
6.19203 5.44203 0.6
6.26274 5.51274 0.6
6.33345 5.58345 0.6
6.40416 5.65416 0.6
6.47487 5.72487 0.6
6.54558 5.79558 0.6
6.6163 5.8663 0.6
4 3.25 0.7
4.07071 3.32071 0.7
4.14142 3.39142 0.7
4.21213 3.46213 0.7
4.28284 3.53284 0.7
4.35355 3.60355 0.7
4.42426 3.67426 0.7
4.49498 3.74498 0.7
4.56569 3.81569 0.7
4.6364 3.8864 0.7
4.70711 3.95711 0.7
4.77782 4.02782 0.7
4.84853 4.09853 0.7
4.91924 4.16924 0.7
4.98995 4.23995 0.7
5.06066 4.31066 0.7
5.13137 4.38137 0.7
5.20208 4.45208 0.7
5.27279 4.52279 0.7
5.3435 4.5935 0.7
5.41421 4.66421 0.7
5.48492 4.73492 0.7
5.55563 4.80563 0.7
5.62635 4.87635 0.7
5.69706 4.94706 0.7
5.76777 5.01777 0.7
5.83848 5.08848 0.7
5.90919 5.15919 0.7
5.9799 5.2299 0.7
6.05061 5.30061 0.7
6.12132 5.37132 0.7
6.19203 5.44203 0.7
6.26274 5.51274 0.7
6.33345 5.58345 0.7
6.40416 5.65416 0.7
6.47487 5.72487 0.7
6.54558 5.79558 0.7
6.6163 5.8663 0.7
4 3.25 0.8
4.07071 3.32071 0.8
4.14142 3.39142 0.8
4.21213 3.46213 0.8
4.28284 3.53284 0.8
4.35355 3.60355 0.8
4.42426 3.67426 0.8
4.49498 3.74498 0.8
4.56569 3.81569 0.8
4.6364 3.8864 0.8
4.70711 3.95711 0.8
4.77782 4.02782 0.8
4.84853 4.09853 0.8
4.91924 4.16924 0.8
4.98995 4.23995 0.8
5.06066 4.31066 0.8
5.13137 4.38137 0.8
5.20208 4.45208 0.8
5.27279 4.52279 0.8
5.3435 4.5935 0.8
5.41421 4.66421 0.8
5.48492 4.73492 0.8
5.55563 4.80563 0.8
5.62635 4.87635 0.8
5.69706 4.94706 0.8
5.76777 5.01777 0.8
5.83848 5.08848 0.8
5.90919 5.15919 0.8
5.9799 5.2299 0.8
6.05061 5.30061 0.8
6.12132 5.37132 0.8
6.19203 5.44203 0.8
6.26274 5.51274 0.8
6.33345 5.58345 0.8
6.40416 5.65416 0.8
6.47487 5.72487 0.8
6.54558 5.79558 0.8
6.6163 5.8663 0.8
4 3.25 0.9
4.07071 3.32071 0.9
4.14142 3.39142 0.9
4.21213 3.46213 0.9
4.28284 3.53284 0.9
4.35355 3.60355 0.9
4.42426 3.67426 0.9
4.49498 3.74498 0.9
4.56569 3.81569 0.9
4.6364 3.8864 0.9
4.70711 3.95711 0.9
4.77782 4.02782 0.9
4.84853 4.09853 0.9
4.91924 4.16924 0.9
4.98995 4.23995 0.9
5.06066 4.31066 0.9
5.13137 4.38137 0.9
5.20208 4.45208 0.9
5.27279 4.52279 0.9
5.3435 4.5935 0.9
5.41421 4.66421 0.9
5.48492 4.73492 0.9
5.55563 4.80563 0.9
5.62635 4.87635 0.9
5.69706 4.94706 0.9
5.76777 5.01777 0.9
5.83848 5.08848 0.9
5.90919 5.15919 0.9
5.9799 5.2299 0.9
6.05061 5.30061 0.9
6.12132 5.37132 0.9
6.19203 5.44203 0.9
6.26274 5.51274 0.9
6.33345 5.58345 0.9
6.40416 5.65416 0.9
6.47487 5.72487 0.9
6.54558 5.79558 0.9
6.6163 5.8663 0.9
4 3.25 1
4.07071 3.32071 1
4.14142 3.39142 1
4.21213 3.46213 1
4.28284 3.53284 1
4.35355 3.60355 1
4.42426 3.67426 1
4.49498 3.74498 1
4.56569 3.81569 1
4.6364 3.8864 1
4.70711 3.95711 1
4.77782 4.02782 1
4.84853 4.09853 1
4.91924 4.16924 1
4.98995 4.23995 1
5.06066 4.31066 1
5.13137 4.38137 1
5.20208 4.45208 1
5.27279 4.52279 1
5.3435 4.5935 1
5.41421 4.66421 1
5.48492 4.73492 1
5.55563 4.80563 1
5.62635 4.87635 1
5.69706 4.94706 1
5.76777 5.01777 1
5.83848 5.08848 1
5.90919 5.15919 1
5.9799 5.2299 1
6.05061 5.30061 1
6.12132 5.37132 1
6.19203 5.44203 1
6.26274 5.51274 1
6.33345 5.58345 1
6.40416 5.65416 1
6.47487 5.72487 1
6.54558 5.79558 1
6.6163 5.8663 1
4 2.75 0
4.07071 2.67929 0
4.14142 2.60858 0
4.21213 2.53787 0
4.28284 2.46716 0
4.35355 2.39645 0
4.42426 2.32574 0
4.49498 2.25502 0
4.56569 2.18431 0
4.6364 2.1136 0
4.70711 2.04289 0
4.77782 1.97218 0
4.84853 1.90147 0
4.91924 1.83076 0
4.98995 1.76005 0
5.06066 1.68934 0
5.13137 1.61863 0
5.20208 1.54792 0
5.27279 1.47721 0
5.3435 1.4065 0
5.41421 1.33579 0
5.48492 1.26508 0
5.55563 1.19436 0
5.62635 1.12365 0
5.69706 1.05294 0
5.76777 0.982233 0
5.83848 0.911522 0
5.90919 0.840812 0
5.9799 0.770101 0
6.05061 0.69939 0
6.12132 0.62868 0
6.19203 0.557969 0
6.26274 0.487258 0
6.33345 0.416548 0
6.40416 0.345837 0
6.47487 0.275126 0
6.54558 0.204416 0
6.6163 0.133705 0
4 2.75 0.1
4.07071 2.67929 0.1
4.14142 2.60858 0.1
4.21213 2.53787 0.1
4.28284 2.46716 0.1
4.35355 2.39645 0.1
4.42426 2.32574 0.1