<?xml version="1.0"?>
<VTKFile type="UnstructuredGrid" version="0.1" byte_order="LittleEndian" compressor="vtkZLibDataCompressor">
 <UnstructuredGrid GhostLevel="0">
  <Piece NumberOfPoints="20" NumberOfCells="20">
   <PointData>
    <DataArray type="Float64" Name="radius"/>
0.1
0.1
0.1
0.1
0.1
0.1
0.1
0.1
0.1
0.1
0.1
0.1
0.1
0.1
0.1
0.1
0.1
0.1
0.1
0.1
    <DataArray type="Float64" Name="mass"/>
10.472
10.472
10.472
10.472
10.472
10.472
10.472
10.472
10.472
10.472
10.472
10.472
10.472
10.472
10.472
10.472
10.472
10.472
10.472
10.472
    <DataArray type="Float64" Name="particleIndex"/>
0
1
2
3
4
5
6
7
8
9
10
11
12
13
14
15
16
17
18
19
    <DataArray type="Float64" Name="clusterIndex"/>
0
1
2
3
4
5
6
7
8
9
10
11
12
13
14
15
16
17
18
19
    <DataArray type="Float64" Name="v" NumberOfComponents="3"/>
0.00221115 -0.011536 -1.54667
1.67969e-07 9.66469e-09 -0.0599373
0.00051569 -0.000206353 -0.140539
9.23576e-05 -9.18387e-06 1.14495
-0.000865562 0.000718166 -1.10884
-0.00020608 0.000426899 1.03126
-0.000731031 -0.00149915 1.14959
-0.00124719 -0.000994596 -1.53319
-0.000696804 0.00295239 0.376244
0.00910676 -0.00487103 -0.766994
2.53794e-05 1.43472e-05 -0.294832
0.301224 0.232464 -0.816193
-0.0218404 0.0191031 1.48018
1.84067 0.663699 0.567675
0.00492928 -0.00234641 2.76669
-0.00591724 0.0596234 -0.35942
0.0134091 0.0148083 0.358892
0.103293 0.0335206 3.53092
0.626924 2.14864 2.10353
-0.00298142 -0.0100606 7.48373
    <DataArray type="Float64" Name="w" NumberOfComponents="3"/>
-0.00106056 -0.000161589 -2.60352e-50
6.93968e-08 -1.2061e-06 0
0.00145212 0.00441662 9.96796e-70
-3.71884e-05 0.000932172 -1.23064e-112
-0.00497448 -0.00613459 -2.20665e-70
-0.00432828 -0.000307063 2.93836e-96
0.00833773 -0.00395403 1.2278e-71
0.00548293 -0.0068333 7.10379e-71
-0.012746 -0.00156238 -4.27137e-67
-0.00220372 -0.00119702 -2.71496e-30
-0.000144216 0.000252243 -1.48296e-148
-2.47177 3.21083 0.00789152
0.00698375 0.00769957 1.0652e-23
-6.77523 18.79 0.20915
0.000705314 -0.00109088 -1.1575e-43
-0.964875 -0.0957576 -2.44137e-11
0.00508143 -0.00457175 4.78682e-26
0.0406972 -0.126166 1.85845e-21
-21.9532 6.40542 -0.0221289
-0.00231375 -0.00144726 4.054e-28
    <DataArray type="Float64" Name="FParticle" NumberOfComponents="3"/>
0 0 0
0 0 0
0 0 0
0 0 0
0 0 0
0 0 0
0 0 0
0 0 0
0 0 0
0 0 0
0 0 0
0 0 0
0 0 0
0 0 0
0 0 0
0 0 0
0 0 0
0 0 0
0 0 0
0 0 0
    <DataArray type="Float64" Name="FGrav" NumberOfComponents="3"/>
0 0 -102.73
0 0 -102.73
0 0 -102.73
0 0 -102.73
0 0 -102.73
0 0 -102.73
0 0 -102.73
0 0 -102.73
0 0 -102.73
0 0 -102.73
0 0 -102.73
0 0 -102.73
0 0 -102.73
0 0 -102.73
0 0 -102.73
0 0 -102.73
0 0 -102.73
0 0 -102.73
0 0 -102.73
0 0 -102.73
    <DataArray type="Float64" Name="MParticle" NumberOfComponents="3"/>
0 0 0
0 0 0
0 0 0
0 0 0
0 0 0
0 0 0
0 0 0
0 0 0
0 0 0
0 0 0
0 0 0
0 0 0
0 0 0
0 0 0
0 0 0
0 0 0
0 0 0
0 0 0
0 0 0
0 0 0
    <DataArray type="Float64" Name="FWall" NumberOfComponents="3"/>
0 0 0
0 0 0
0 0 0
0 0 0
0 0 0
0 0 0
0 0 0
0 0 0
0 0 0
0 0 0
0 0 0
0 0 0
0 0 0
0 0 0
0 0 0
0 0 0
0 0 0
0 0 0
0 0 0
0 0 0
    <DataArray type="Float64" Name="MWall" NumberOfComponents="3"/>
0 0 0
0 0 0
0 0 0
0 0 0
0 0 0
0 0 0
0 0 0
0 0 0
0 0 0
0 0 0
0 0 0
0 0 0
0 0 0
0 0 0
0 0 0
0 0 0
0 0 0
0 0 0
0 0 0
0 0 0
    <DataArray type="Float64" Name="FHydro" NumberOfComponents="3"/>
0 0 0
0 0 0
0 0 0
0 0 0
0 0 0
0 0 0
0 0 0
0 0 0
0 0 0
0 0 0
0 0 0
0 0 0
0 0 0
0 0 0
0 0 0
0 0 0
0 0 0
0 0 0
0 0 0
0 0 0
    <DataArray type="Float64" Name="FSpringP" NumberOfComponents="3"/>
0 0 0
0 0 0
0 0 0
0 0 0
0 0 0
0 0 0
0 0 0
0 0 0
0 0 0
0 0 0
0 0 0
0 0 0
0 0 0
0 0 0
0 0 0
0 0 0
0 0 0
0 0 0
0 0 0
0 0 0
    <DataArray type="Float64" Name="FSpringW" NumberOfComponents="3"/>
0 0 0
0 0 0
0 0 0
0 0 0
0 0 0
0 0 0
0 0 0
0 0 0
0 0 0
0 0 0
0 0 0
0 0 0
0 0 0
0 0 0
0 0 0
0 0 0
0 0 0
0 0 0
0 0 0
0 0 0
    <DataArray type="Float64" Name="MRolling" NumberOfComponents="3"/>
0 0 0
0 0 0
0 0 0
0 0 0
0 0 0
0 0 0
0 0 0
0 0 0
0 0 0
0 0 0
0 0 0
0 0 0
0 0 0
0 0 0
0 0 0
0 0 0
0 0 0
0 0 0
0 0 0
0 0 0
   </PointData>
   <CellData>
   </CellData>
   <Points>
    <DataArray type="Float64" Name="Points" NumberOfComponents="3"/>
1.98614 2.46479 1.73304
2.62619 1.6449 0.138407
0.471008 1.94212 0.219068
2.62891 2.65165 0.16948
0.903698 2.83224 0.202983
3.63644 2.57543 0.199388
1.89949 0.844023 0.310625
1.33876 1.90796 0.196636
1.50767 3.15655 0.45788
0.700987 2.87451 1.0282
0.923308 2.12808 0.162027
2.25822 1.90247 0.251591
2.98873 0.526484 0.801984
9.33695 4.39149 0.455242
3.22203 1.59275 0.695758
1.71439 5.31107 0.381714
1.04102 0.665616 0.48584
1.90153 1.72048 1.75243
4.23783 9.17729 0.350648
1.95432 2.09329 0.434201
   </Points>
   <Cells>
    <DataArray type="Int64" Name="connectivity" format="ascii">
0
1
2
3
4
5
6
7
8
9
10
11
12
13
14
15
16
17
18
19
    </DataArray>
    <DataArray type="Int64" Name="offsets" format="ascii">
1
2
3
4
5
6
7
8
9
10
11
12
13
14
15
16
17
18
19
20
    </DataArray>
    <DataArray type="Int64" Name="types" format="ascii">
1
1
1
1
1
1
1
1
1
1
1
1
1
1
1
1
1
1
1
1
    </DataArray>
   </Cells>
  </Piece>
 </UnstructuredGrid>
</VTKFile>