<?xml version="1.0"?>
<VTKFile type="UnstructuredGrid" version="0.1" byte_order="LittleEndian" compressor="vtkZLibDataCompressor">
 <UnstructuredGrid GhostLevel="0">
  <Piece NumberOfPoints="20" NumberOfCells="20">
   <PointData>
    <DataArray type="Float64" Name="radius"/>
0.1
0.1
0.1
0.1
0.1
0.1
0.1
0.1
0.1
0.1
0.1
0.1
0.1
0.1
0.1
0.1
0.1
0.1
0.1
0.1
    <DataArray type="Float64" Name="mass"/>
10.472
10.472
10.472
10.472
10.472
10.472
10.472
10.472
10.472
10.472
10.472
10.472
10.472
10.472
10.472
10.472
10.472
10.472
10.472
10.472
    <DataArray type="Float64" Name="particleIndex"/>
0
1
2
3
4
5
6
7
8
9
10
11
12
13
14
15
16
17
18
19
    <DataArray type="Float64" Name="clusterIndex"/>
0
1
2
3
4
5
6
7
8
9
10
11
12
13
14
15
16
17
18
19
    <DataArray type="Float64" Name="v" NumberOfComponents="3"/>
-0.00109835 0.237614 0.0325085
0.210732 -0.122265 0.0894467
-0.209342 -0.120147 0.0105785
-0.00386201 0.0201926 -1.51336
-0.0034036 0.00490262 -1.48917
0.00956635 0.00140426 -1.58524
0.00450412 0.0010892 -1.51046
0.000803881 0.00137729 -1.43399
-0.00246666 0.00139549 -1.31049
-0.00309258 -0.00065912 -1.4189
-0.00312453 -0.00213533 -1.58673
-0.0024541 -0.00361307 -1.22901
-0.000857106 -0.00235503 -1.31395
0.000147251 -0.00205861 -1.25632
0.000517053 -0.000434506 -1.19396
0.000168533 0.00148593 -1.06084
-0.00025295 0.00107917 -1.4015
-0.000385645 0.000248007 -1.22987
0.000466772 0.000612702 -1.00917
9.25076e-05 -0.000300332 -1.10782
    <DataArray type="Float64" Name="w" NumberOfComponents="3"/>
-2.40397 -0.011112 -9.86664e-06
1.23806 2.13389 1.49054e-07
1.21217 -2.11204 0.00144339
-0.0970624 0.274461 0.00300362
0.0282392 0.111875 -0.000566757
0.000756446 -0.0249517 -0.000355578
-0.00136652 -0.0174112 -0.000348013
-0.00137553 -0.0173632 -0.000347898
0.0112075 -0.00319342 -0.000390618
0.0100153 -0.0019867 -0.000392627
0.00936616 0.000850548 -0.000391918
0.00722755 0.000477646 -0.000396188
-0.00221509 0.00551935 -0.000489659
-0.00167486 0.00476775 -0.000489948
-0.00533327 0.00267224 -0.000474549
-0.00704661 -0.00107907 -0.000455903
0.00362842 -0.000583636 -0.00024986
0.00361967 -0.000541473 -0.000248414
-0.00152777 0.00337058 -0.000177894
0.00312349 -0.000893147 -0.000104838
    <DataArray type="Float64" Name="FParticle" NumberOfComponents="3"/>
0 0 0
0 0 0
0 0 0
0 0 0
0 0 0
0 0 0
0 0 0
0 0 0
-0.0688089 -2.10995 -177.612
-0.329152 3.86198 -242.596
0.081929 1.13168 37.0072
0.316032 -2.8837 383.201
0 0 0
0 0 0
0 0 0
0 0 0
0 0 0
0 0 0
0 0 0
0 0 0
    <DataArray type="Float64" Name="FGrav" NumberOfComponents="3"/>
0 0 -102.73
0 0 -102.73
0 0 -102.73
0 0 -102.73
0 0 -102.73
0 0 -102.73
0 0 -102.73
0 0 -102.73
0 0 -102.73
0 0 -102.73
0 0 -102.73
0 0 -102.73
0 0 -102.73
0 0 -102.73
0 0 -102.73
0 0 -102.73
0 0 -102.73
0 0 -102.73
0 0 -102.73
0 0 -102.73
    <DataArray type="Float64" Name="MParticle" NumberOfComponents="3"/>
0 0 0
0 0 0
0 0 0
0 0 0
0 0 0
0 0 0
0 0 0
0 0 0
0.255535 -0.0279437 0.000232962
0.191759 -0.0825351 6.57463e-05
-0.347721 -0.0524192 8.3305e-05
-0.283945 0.00217219 0.00025052
0 0 0
0 0 0
0 0 0
0 0 0
0 0 0
0 0 0
0 0 0
0 0 0
    <DataArray type="Float64" Name="FWall" NumberOfComponents="3"/>
0 0 0
0 0 0
0 0 0
0 0 0
0 0 0
0 0 0
0 0 0
0 0 0
0 0 0
0 0 0
0 0 0
0 0 0
0 0 0
0 0 0
0 0 0
0 0 0
0 0 0
0 0 0
0 0 0
0 0 0
    <DataArray type="Float64" Name="MWall" NumberOfComponents="3"/>
0 0 0
0 0 0
0 0 0
0 0 0
0 0 0
0 0 0
0 0 0
0 0 0
0 0 0
0 0 0
0 0 0
0 0 0
0 0 0
0 0 0
0 0 0
0 0 0
0 0 0
0 0 0
0 0 0
0 0 0
    <DataArray type="Float64" Name="FHydro" NumberOfComponents="3"/>
0 0 0
0 0 0
0 0 0
0 0 0
0 0 0
0 0 0
0 0 0
0 0 0
0 0 0
0 0 0
0 0 0
0 0 0
0 0 0
0 0 0
0 0 0
0 0 0
0 0 0
0 0 0
0 0 0
0 0 0
    <DataArray type="Float64" Name="FSpringP" NumberOfComponents="3"/>
0 0 0
0 0 0
0 0 0
0 0 0
0 0 0
0 0 0
0 0 0
0 0 0
-0.27943 -2.55534 -0.00673949
-0.266487 3.1931 0.00823841
0.567639 2.20169 -0.00119018
-0.0217221 -2.83945 -0.000308745
0 0 0
0 0 0
0 0 0
0 0 0
0 0 0
0 0 0
0 0 0
0 0 0
    <DataArray type="Float64" Name="FSpringW" NumberOfComponents="3"/>
0 0 0
0 0 0
0 0 0
0 0 0
0 0 0
0 0 0
0 0 0
0 0 0
0 0 0
0 0 0
0 0 0
0 0 0
0 0 0
0 0 0
0 0 0
0 0 0
0 0 0
0 0 0
0 0 0
0 0 0
    <DataArray type="Float64" Name="MRolling" NumberOfComponents="3"/>
0 0 0
0 0 0
0 0 0
0 0 0
0 0 0
0 0 0
0 0 0
0 0 0
-0.821368 -0.337563 -0.00159957
2.14179 1.97185 0.00459806
-2.89046 -2.7325 -0.00629725
1.57003 1.09821 0.00329876
0 0 0
0 0 0
0 0 0
0 0 0
0 0 0
0 0 0
0 0 0
0 0 0
   </PointData>
   <CellData>
   </CellData>
   <Points>
    <DataArray type="Float64" Name="Points" NumberOfComponents="3"/>
1.99997 2.20393 0.138471
2.17799 1.89721 0.138333
1.82391 1.89833 0.138436
1.99982 2.00115 0.1436
2.00084 2.00078 0.345008
2.00155 2.00063 0.546445
2.00087 2.00036 0.748929
2.00023 2.0004 0.950206
1.99971 2.00042 1.15819
1.99947 1.99992 1.35801
1.9994 1.99939 1.55759
1.99958 1.99937 1.75721
1.99979 1.99945 1.95932
1.99997 1.99949 2.16042
2.00005 1.99982 2.3625
1.99997 2.0002 2.56542
1.99994 2.00023 2.76798
1.99991 2.00007 2.97286
2.00008 2.00016 3.19134
2.00003 1.99994 3.41526
   </Points>
   <Cells>
    <DataArray type="Int64" Name="connectivity" format="ascii">
0
1
2
3
4
5
6
7
8
9
10
11
12
13
14
15
16
17
18
19
    </DataArray>
    <DataArray type="Int64" Name="offsets" format="ascii">
1
2
3
4
5
6
7
8
9
10
11
12
13
14
15
16
17
18
19
20
    </DataArray>
    <DataArray type="Int64" Name="types" format="ascii">
1
1
1
1
1
1
1
1
1
1
1
1
1
1
1
1
1
1
1
1
    </DataArray>
   </Cells>
  </Piece>
 </UnstructuredGrid>
</VTKFile>