<?xml version="1.0"?>
<VTKFile type="UnstructuredGrid" version="0.1" byte_order="LittleEndian" compressor="vtkZLibDataCompressor">
 <UnstructuredGrid GhostLevel="0">
  <Piece NumberOfPoints="20" NumberOfCells="20">
   <PointData>
    <DataArray type="Float64" Name="radius"/>
0.1
0.1
0.1
0.1
0.1
0.1
0.1
0.1
0.1
0.1
0.1
0.1
0.1
0.1
0.1
0.1
0.1
0.1
0.1
0.1
    <DataArray type="Float64" Name="mass"/>
10.472
10.472
10.472
10.472
10.472
10.472
10.472
10.472
10.472
10.472
10.472
10.472
10.472
10.472
10.472
10.472
10.472
10.472
10.472
10.472
    <DataArray type="Float64" Name="particleIndex"/>
0
1
2
3
4
5
6
7
8
9
10
11
12
13
14
15
16
17
18
19
    <DataArray type="Float64" Name="clusterIndex"/>
0
1
2
3
4
5
6
7
8
9
10
11
12
13
14
15
16
17
18
19
    <DataArray type="Float64" Name="v" NumberOfComponents="3"/>
-0.000257456 0.0737144 -0.146595
0.0642025 -0.0370927 -0.146909
-0.0626736 -0.0358973 -0.15124
0.000833013 0.000513699 -0.286929
0.002439 0.000732289 -0.318212
0.00235123 0.0010003 -0.365332
0.00114346 0.00102256 -0.236142
3.65706e-05 0.000828413 -0.244204
-0.000464154 0.000336316 -0.24734
-0.000619647 -0.000171923 -0.276414
-0.000446411 -0.000433143 0.0786574
-0.000243138 -0.000612781 -0.0831349
-0.000182111 -0.000616594 -0.017988
-9.91458e-05 -0.000652809 0.112401
-0.000102293 -0.000380447 -0.215421
-0.00017361 -4.96478e-05 0.0308979
-0.000130556 0.000197759 0.0988271
3.61175e-06 0.000255385 0.181342
1.51362e-05 0.000121195 -0.0257308
2.72724e-05 1.11785e-05 -0.63096
    <DataArray type="Float64" Name="w" NumberOfComponents="3"/>
-0.0271052 -0.0011839 0.000264674
0.023823 0.0199915 0.000219012
0.0173072 -0.0201505 -0.000476058
-0.00376678 0.00761447 0.000159418
0.000755248 0.00446343 -0.000459787
-0.00281929 -0.00344154 0.00047406
0.00141451 -0.00479634 -0.000161082
-0.000238381 -0.00478247 2.40584e-05
0.0041209 -0.000938806 -0.000684882
0.00246889 -0.00116328 -0.000430401
0.00103049 0.000875671 -0.000503307
-1.36758e-05 0.000353716 -0.000483468
0.00031214 0.00117971 -0.000471943
-0.000354333 0.000731658 -0.000440722
-0.0012738 0.000533029 -0.000361189
-0.00121012 0.000200411 -0.000250111
-0.0011248 0.000208508 -0.000250079
-0.000450135 0.000254355 -0.000181305
6.39766e-05 0.000961177 -0.0003704
0.00183752 -0.000695371 0.000239564
    <DataArray type="Float64" Name="FParticle" NumberOfComponents="3"/>
-9.10807 348.308 -956.206
306.668 -163.369 -952.869
-305.218 -169.922 -958.917
8.7232 -14.5273 402.639
-5.19879 4.56301 208.269
3.1733 -8.25204 1156.54
1.02536 1.8128 -517.069
2.58733 -2.1785 445.443
-4.23862 8.87579 460.533
1.5864 -5.31139 711.632
0 0 0
-5.3714 2.49959 -1594.92
-0.930855 0.438984 483.644
10.8185 -4.73296 907.738
-4.51625 1.79439 203.535
0.00147935 0.00747635 -4.94086
-0.00147935 -0.00747635 4.94086
0 0 0
-0.057156 0.21346 -1898.36
0.057156 -0.21346 1898.36
    <DataArray type="Float64" Name="FGrav" NumberOfComponents="3"/>
0 0 -102.73
0 0 -102.73
0 0 -102.73
0 0 -102.73
0 0 -102.73
0 0 -102.73
0 0 -102.73
0 0 -102.73
0 0 -102.73
0 0 -102.73
0 0 -102.73
0 0 -102.73
0 0 -102.73
0 0 -102.73
0 0 -102.73
0 0 -102.73
0 0 -102.73
0 0 -102.73
0 0 -102.73
0 0 -102.73
    <DataArray type="Float64" Name="MParticle" NumberOfComponents="3"/>
37.7878 -0.590778 -0.575134
-19.6605 -32.1198 -0.820554
-19.2975 32.6205 0.361886
-1.36692 0.168067 -1.03383
-0.670122 -0.211685 -0.000218153
-0.0605064 -0.63146 -7.49226e-05
0.534363 -0.254822 0.000194248
0.452532 0.113421 0.000205893
-0.159133 0.0415122 -1.7413e-05
-0.490281 -0.165015 -0.000138667
0 0 0
-0.251905 -0.531407 1.5539e-05
-0.523774 -1.15181 -8.31806e-05
-0.100148 -0.169236 -0.000265929
0.171722 0.451167 -0.000167209
-0.000702114 0.000135472 -5.22925e-09
-0.000702114 0.000135472 -5.22925e-09
0 0 0
-0.000108278 8.41235e-05 1.27193e-08
-0.000108278 8.41235e-05 1.27193e-08
    <DataArray type="Float64" Name="FWall" NumberOfComponents="3"/>
40.8389 -508.377 1646.36
-460.999 209.439 1640.26
461.98 213.608 1632.89
0 0 0
0 0 0
0 0 0
0 0 0
0 0 0
0 0 0
0 0 0
0 0 0
0 0 0
0 0 0
0 0 0
0 0 0
0 0 0
0 0 0
0 0 0
0 0 0
0 0 0
    <DataArray type="Float64" Name="MWall" NumberOfComponents="3"/>
-50.8377 -4.08389 0
20.9439 46.0999 0
21.3608 -46.198 0
0 0 0
0 0 0
0 0 0
0 0 0
0 0 0
0 0 0
0 0 0
0 0 0
0 0 0
0 0 0
0 0 0
0 0 0
0 0 0
0 0 0
0 0 0
0 0 0
0 0 0
    <DataArray type="Float64" Name="FHydro" NumberOfComponents="3"/>
0 0 0
0 0 0
0 0 0
0 0 0
0 0 0
0 0 0
0 0 0
0 0 0
0 0 0
0 0 0
0 0 0
0 0 0
0 0 0
0 0 0
0 0 0
0 0 0
0 0 0
0 0 0
0 0 0
0 0 0
    <DataArray type="Float64" Name="FSpringP" NumberOfComponents="3"/>
-8.23763 -281.653 -251.919
-236.651 151.267 -251.005
241.92 145.917 -252.676
5.54931 -13.5647 755.597
-7.27804 2.76847 0.0022587
3.08029 -8.86463 -0.00395381
0.686092 2.91593 0.00401468
2.99634 -2.09763 0.00219284
-3.71542 8.21428 0.000918381
1.65015 -4.90281 -0.00266708
0 0 0
-5.31407 2.51905 0.000160292
-0.889959 0.19965 0.00092602
10.7157 -4.43591 -0.000333691
-4.51167 1.71722 -0.000752621
0.00135472 0.00702114 6.81046e-07
-0.00135472 -0.00702114 -6.81046e-07
0 0 0
0.000841235 0.00108278 9.54345e-08
-0.000841235 -0.00108278 -9.54345e-08
    <DataArray type="Float64" Name="FSpringW" NumberOfComponents="3"/>
40.8389 -508.377 0
-460.999 209.439 0
461.98 213.608 0
0 0 0
0 0 0
0 0 0
0 0 0
0 0 0
0 0 0
0 0 0
0 0 0
0 0 0
0 0 0
0 0 0
0 0 0
0 0 0
0 0 0
0 0 0
0 0 0
0 0 0
    <DataArray type="Float64" Name="MRolling" NumberOfComponents="3"/>
10.3767 -35.5433 -1.94976
-37.3682 2.54509 -1.39102
-36.8303 -5.44726 3.45025
21.2218 10.6791 -2.79826
-20.5305 -10.9417 3.74849
14.4513 8.05533 -2.60625
-12.1975 -5.64106 2.00574
12.315 6.25642 -1.91156
-8.29231 -4.2702 1.28191
3.1896 1.49309 -0.50767
0 0 0
3.49573 7.16756 0.00518215
-5.9973 -12.1289 -0.00209761
2.87909 5.90641 0.00557756
-0.377518 -0.945025 -0.00866209
0.0204731 0.0138258 5.53321e-06
-0.0204731 -0.0138258 -5.53321e-06
0 0 0
6.72738 -6.2836 2.31371
-6.72738 6.2836 -2.31371
   </PointData>
   <CellData>
   </CellData>
   <Points>
    <DataArray type="Float64" Name="Points" NumberOfComponents="3"/>
2.00007 2.13285 0.136677
2.1151 1.93364 0.13668
1.88532 1.9338 0.136684
2.00025 2.00014 0.285041
2.00037 2.00026 0.482575
2.00032 2.00023 0.680318
2.0002 2.00007 0.879218
2.00008 2.00009 1.0776
1.99998 2.00013 1.27643
1.99997 2.00002 1.47572
1.99998 1.99992 1.67743
1.99998 1.99993 1.87772
1.99999 1.99993 2.07613
2.00001 1.99989 2.27502
2 1.99996 2.47481
1.99998 2.00004 2.67567
1.99998 2.00002 2.87567
1.99998 2 3.0763
2 2.00002 3.28042
2 2 3.47852
   </Points>
   <Cells>
    <DataArray type="Int64" Name="connectivity" format="ascii">
0
1
2
3
4
5
6
7
8
9
10
11
12
13
14
15
16
17
18
19
    </DataArray>
    <DataArray type="Int64" Name="offsets" format="ascii">
1
2
3
4
5
6
7
8
9
10
11
12
13
14
15
16
17
18
19
20
    </DataArray>
    <DataArray type="Int64" Name="types" format="ascii">
1
1
1
1
1
1
1
1
1
1
1
1
1
1
1
1
1
1
1
1
    </DataArray>
   </Cells>
  </Piece>
 </UnstructuredGrid>
</VTKFile>