<?xml version="1.0"?>
<VTKFile type="UnstructuredGrid" version="0.1" byte_order="LittleEndian" compressor="vtkZLibDataCompressor">
 <UnstructuredGrid GhostLevel="0">
  <Piece NumberOfPoints="20" NumberOfCells="20">
   <PointData>
    <DataArray type="Float64" Name="radius"/>
0.1
0.1
0.1
0.1
0.1
0.1
0.1
0.1
0.1
0.1
0.1
0.1
0.1
0.1
0.1
0.1
0.1
0.1
0.1
0.1
    <DataArray type="Float64" Name="mass"/>
10.472
10.472
10.472
10.472
10.472
10.472
10.472
10.472
10.472
10.472
10.472
10.472
10.472
10.472
10.472
10.472
10.472
10.472
10.472
10.472
    <DataArray type="Float64" Name="particleIndex"/>
0
1
2
3
4
5
6
7
8
9
10
11
12
13
14
15
16
17
18
19
    <DataArray type="Float64" Name="clusterIndex"/>
0
1
2
3
4
5
6
7
8
9
10
11
12
13
14
15
16
17
18
19
    <DataArray type="Float64" Name="v" NumberOfComponents="3"/>
-0.0206317 0.107343 0.60451
0.0386067 -0.0217047 0.0863612
-1.19123 0.12321 0.740343
0.267702 0.297972 0.697817
-0.394193 0.404166 -0.247177
0.665714 0.336767 -0.585475
-0.139583 -0.277011 1.73531
-0.249842 -0.196423 0.842815
-0.148641 0.571759 -1.21654
-1.77617 1.08585 -4.07782
-0.812247 0.201611 -0.677619
0.0121145 1.72663 1.37483
1.07138 -1.38306 -0.439311
3.94752 1.42355 -1.17693
0.961014 -0.434521 -0.798192
-0.196915 1.98368 -0.050339
-1.56304 -1.30694 -1.85521
0.0177674 0.0480222 3.16127
1.61249 5.50528 -1.88022
0.0143227 0.00386515 5.56841
    <DataArray type="Float64" Name="w" NumberOfComponents="3"/>
0.170715 0.0333842 4.39552e-26
0.233937 0.41611 -1.37736e-05
-1.25494 -12.1334 0.00965188
-3.14849 2.82865 0.00349864
-5.53348 -7.918 -0.258744
-3.48097 6.88111 0.00120046
3.08212 -1.55323 0.0016494
2.1577 -2.74348 -0.0311331
-6.11201 -1.58549 0.0463397
13.986 12.9103 1.34234
-2.04549 -8.24081 0.00038522
-16.8606 0.118295 -0.0325288
-6.48643 8.09831 9.30633
-14.1869 39.3567 3.25568
4.64226 10.2924 0.00717611
-20.163 -1.99989 -0.000125106
11.2099 1.96561 9.29667
0.0115236 -0.00287718 7.87407e-23
-23.6103 6.69239 -0.399386
0.00678612 0.000558354 1.8284e-25
    <DataArray type="Float64" Name="FParticle" NumberOfComponents="3"/>
0 0 0
0 0 0
0 0 0
0 0 0
0 0 0
0 0 0
0 0 0
0 0 0
0 0 0
0 0 0
0 0 0
0 0 0
0 0 0
0 0 0
0 0 0
0 0 0
0 0 0
0 0 0
0 0 0
0 0 0
    <DataArray type="Float64" Name="FGrav" NumberOfComponents="3"/>
0 0 -102.73
0 0 -102.73
0 0 -102.73
0 0 -102.73
0 0 -102.73
0 0 -102.73
0 0 -102.73
0 0 -102.73
0 0 -102.73
0 0 -102.73
0 0 -102.73
0 0 -102.73
0 0 -102.73
0 0 -102.73
0 0 -102.73
0 0 -102.73
0 0 -102.73
0 0 -102.73
0 0 -102.73
0 0 -102.73
    <DataArray type="Float64" Name="MParticle" NumberOfComponents="3"/>
0 0 0
0 0 0
0 0 0
0 0 0
0 0 0
0 0 0
0 0 0
0 0 0
0 0 0
0 0 0
0 0 0
0 0 0
0 0 0
0 0 0
0 0 0
0 0 0
0 0 0
0 0 0
0 0 0
0 0 0
    <DataArray type="Float64" Name="FWall" NumberOfComponents="3"/>
0 0 0
0 0 0
0 0 0
0 0 0
0 0 0
0 0 0
0 0 0
0 0 0
0 0 0
0 0 0
0 0 0
0 0 0
0 0 0
0 0 0
0 0 0
0 0 0
0 0 0
0 0 0
0 0 0
0 0 0
    <DataArray type="Float64" Name="MWall" NumberOfComponents="3"/>
0 0 0
0 0 0
0 0 0
0 0 0
0 0 0
0 0 0
0 0 0
0 0 0
0 0 0
0 0 0
0 0 0
0 0 0
0 0 0
0 0 0
0 0 0
0 0 0
0 0 0
0 0 0
0 0 0
0 0 0
    <DataArray type="Float64" Name="FHydro" NumberOfComponents="3"/>
0 0 0
0 0 0
0 0 0
0 0 0
0 0 0
0 0 0
0 0 0
0 0 0
0 0 0
0 0 0
0 0 0
0 0 0
0 0 0
0 0 0
0 0 0
0 0 0
0 0 0
0 0 0
0 0 0
0 0 0
    <DataArray type="Float64" Name="FSpringP" NumberOfComponents="3"/>
0 0 0
0 0 0
0 0 0
0 0 0
0 0 0
0 0 0
0 0 0
0 0 0
0 0 0
0 0 0
0 0 0
0 0 0
0 0 0
0 0 0
0 0 0
0 0 0
0 0 0
0 0 0
0 0 0
0 0 0
    <DataArray type="Float64" Name="FSpringW" NumberOfComponents="3"/>
0 0 0
0 0 0
0 0 0
0 0 0
0 0 0
0 0 0
0 0 0
0 0 0
0 0 0
0 0 0
0 0 0
0 0 0
0 0 0
0 0 0
0 0 0
0 0 0
0 0 0
0 0 0
0 0 0
0 0 0
    <DataArray type="Float64" Name="MRolling" NumberOfComponents="3"/>
0 0 0
0 0 0
0 0 0
0 0 0
0 0 0
0 0 0
0 0 0
0 0 0
0 0 0
0 0 0
0 0 0
0 0 0
0 0 0
0 0 0
0 0 0
0 0 0
0 0 0
0 0 0
0 0 0
0 0 0
   </PointData>
   <CellData>
   </CellData>
   <Points>
    <DataArray type="Float64" Name="Points" NumberOfComponents="3"/>
1.99799 2.40317 1.83659
2.6252 1.64545 0.13821
0.159178 1.92573 0.197895
2.57238 2.5886 0.211492
1.00591 2.73469 0.262558
3.49159 2.50213 0.236144
1.94954 0.943355 0.224542
1.40067 1.95663 0.280268
1.52399 3.09376 0.389725
0.788703 2.82399 0.210805
1.11187 2.08131 0.143059
2.07177 0.552352 0.149295
2.46558 1.14152 0.903963
5.32802 2.94595 0.401131
2.91845 1.73025 1.05362
1.85341 3.91038 0.388211
1.56838 1.2159 0.317045
1.89097 1.75613 2.42741
2.81222 4.29359 0.396076
1.91856 1.96665 1.72246
   </Points>
   <Cells>
    <DataArray type="Int64" Name="connectivity" format="ascii">
0
1
2
3
4
5
6
7
8
9
10
11
12
13
14
15
16
17
18
19
    </DataArray>
    <DataArray type="Int64" Name="offsets" format="ascii">
1
2
3
4
5
6
7
8
9
10
11
12
13
14
15
16
17
18
19
20
    </DataArray>
    <DataArray type="Int64" Name="types" format="ascii">
1
1
1
1
1
1
1
1
1
1
1
1
1
1
1
1
1
1
1
1
    </DataArray>
   </Cells>
  </Piece>
 </UnstructuredGrid>
</VTKFile>