<?xml version="1.0"?>
<VTKFile type="UnstructuredGrid" version="0.1" byte_order="LittleEndian" compressor="vtkZLibDataCompressor">
 <UnstructuredGrid GhostLevel="0">
  <Piece NumberOfPoints="20" NumberOfCells="20">
   <PointData>
    <DataArray type="Float64" Name="radius"/>
0.1
0.1
0.1
0.1
0.1
0.1
0.1
0.1
0.1
0.1
0.1
0.1
0.1
0.1
0.1
0.1
0.1
0.1
0.1
0.1
    <DataArray type="Float64" Name="mass"/>
10.472
10.472
10.472
10.472
10.472
10.472
10.472
10.472
10.472
10.472
10.472
10.472
10.472
10.472
10.472
10.472
10.472
10.472
10.472
10.472
    <DataArray type="Float64" Name="particleIndex"/>
0
1
2
3
4
5
6
7
8
9
10
11
12
13
14
15
16
17
18
19
    <DataArray type="Float64" Name="clusterIndex"/>
0
1
2
3
4
5
6
7
8
9
10
11
12
13
14
15
16
17
18
19
    <DataArray type="Float64" Name="v" NumberOfComponents="3"/>
-0.000342728 0.000939763 4.15674
1.2445e-08 7.16068e-10 0.0370897
2.18353e-06 6.07984e-07 0.521339
-1.68132e-06 -1.16042e-05 0.622343
-1.02695e-06 -7.70462e-06 0.688846
-2.18121e-05 -1.20672e-05 -1.17739
1.80908e-05 -1.63516e-05 1.15375
3.83208e-05 -2.25263e-05 -0.0975448
0.000140238 -5.93183e-05 -1.85632
-0.000752509 0.00051175 -1.28173
3.10216e-06 1.87546e-06 -0.578751
-0.000117965 -0.000176738 -1.07454
0.00134682 -0.000655885 -0.425809
-0.0400466 -0.0144417 -1.51311
0.000227091 0.00100972 2.50571
-0.000207832 -0.000404205 0.0135077
-0.000677677 -0.000276124 -1.25245
-0.0113941 -0.0036801 -0.765749
-0.013702 -0.0469643 2.26141
-0.0026778 -0.00697721 5.6228
    <DataArray type="Float64" Name="w" NumberOfComponents="3"/>
0.000244166 -0.00265799 -3.49872e-98
1.22955e-07 -2.13692e-06 0
-2.81155e-06 1.01151e-05 7.14305e-237
0.000104089 -1.50089e-05 -1.31459e-254
8.21526e-05 -1.05638e-05 -4.27851e-214
0.000137777 -0.000250087 1.33116e-216
0.000116256 -5.07599e-06 7.51963e-171
0.000107728 0.000416986 -6.23829e-192
0.000878193 0.00118477 -3.90485e-138
0.000426893 -0.00741153 -8.98262e-78
-2.08482e-05 3.44846e-05 9.88131e-324
0.00200942 -0.000662509 -2.58475e-117
0.00652766 0.0124384 1.03519e-68
-0.0171268 0.0475056 -2.64733e-24
-0.00696545 0.00566967 -3.76712e-90
0.00418693 -0.000119791 5.15175e-97
0.00302516 -0.00657235 1.02318e-95
-0.000430911 0.000839709 4.086e-45
-0.0587625 0.0171466 -3.43248e-26
0.0350827 -0.0178159 2.8339e-51
    <DataArray type="Float64" Name="FParticle" NumberOfComponents="3"/>
0 0 0
0 0 0
0 0 0
0 0 0
0 0 0
0 0 0
0 0 0
0 0 0
0 0 0
0 0 0
0 0 0
0 0 0
0 0 0
0 0 0
0 0 0
0 0 0
0 0 0
0 0 0
0 0 0
0 0 0
    <DataArray type="Float64" Name="FGrav" NumberOfComponents="3"/>
0 0 -102.73
0 0 -102.73
0 0 -102.73
0 0 -102.73
0 0 -102.73
0 0 -102.73
0 0 -102.73
0 0 -102.73
0 0 -102.73
0 0 -102.73
0 0 -102.73
0 0 -102.73
0 0 -102.73
0 0 -102.73
0 0 -102.73
0 0 -102.73
0 0 -102.73
0 0 -102.73
0 0 -102.73
0 0 -102.73
    <DataArray type="Float64" Name="MParticle" NumberOfComponents="3"/>
0 0 0
0 0 0
0 0 0
0 0 0
0 0 0
0 0 0
0 0 0
0 0 0
0 0 0
0 0 0
0 0 0
0 0 0
0 0 0
0 0 0
0 0 0
0 0 0
0 0 0
0 0 0
0 0 0
0 0 0
    <DataArray type="Float64" Name="FWall" NumberOfComponents="3"/>
0 0 0
0 0 0
0 0 0
0 0 0
0 0 0
0 0 0
0 0 0
0 0 0
0 0 0
0 0 0
0 0 0
0 0 0
0 0 0
0 0 0
0 0 0
0 0 0
0 0 0
0 0 0
0 0 0
0 0 0
    <DataArray type="Float64" Name="MWall" NumberOfComponents="3"/>
0 0 0
0 0 0
0 0 0
0 0 0
0 0 0
0 0 0
0 0 0
0 0 0
0 0 0
0 0 0
0 0 0
0 0 0
0 0 0
0 0 0
0 0 0
0 0 0
0 0 0
0 0 0
0 0 0
0 0 0
    <DataArray type="Float64" Name="FHydro" NumberOfComponents="3"/>
0 0 0
0 0 0
0 0 0
0 0 0
0 0 0
0 0 0
0 0 0
0 0 0
0 0 0
0 0 0
0 0 0
0 0 0
0 0 0
0 0 0
0 0 0
0 0 0
0 0 0
0 0 0
0 0 0
0 0 0
    <DataArray type="Float64" Name="FSpringP" NumberOfComponents="3"/>
0 0 0
0 0 0
0 0 0
0 0 0
0 0 0
0 0 0
0 0 0
0 0 0
0 0 0
0 0 0
0 0 0
0 0 0
0 0 0
0 0 0
0 0 0
0 0 0
0 0 0
0 0 0
0 0 0
0 0 0
    <DataArray type="Float64" Name="FSpringW" NumberOfComponents="3"/>
0 0 0
0 0 0
0 0 0
0 0 0
0 0 0
0 0 0
0 0 0
0 0 0
0 0 0
0 0 0
0 0 0
0 0 0
0 0 0
0 0 0
0 0 0
0 0 0
0 0 0
0 0 0
0 0 0
0 0 0
    <DataArray type="Float64" Name="MRolling" NumberOfComponents="3"/>
0 0 0
0 0 0
0 0 0
0 0 0
0 0 0
0 0 0
0 0 0
0 0 0
0 0 0
0 0 0
0 0 0
0 0 0
0 0 0
0 0 0
0 0 0
0 0 0
0 0 0
0 0 0
0 0 0
0 0 0
   </PointData>
   <CellData>
   </CellData>
   <Points>
    <DataArray type="Float64" Name="Points" NumberOfComponents="3"/>
1.98749 2.45067 0.97387
2.62619 1.6449 0.13852
0.471102 1.94213 0.206203
2.62893 2.65161 0.216532
0.90348 2.83227 0.241435
3.63632 2.57548 0.182914
1.89884 0.842937 0.310084
1.33857 1.90745 0.31592
1.50709 3.15709 0.289396
0.703145 2.86911 0.974261
0.923323 2.12809 0.149379
2.2803 1.91925 0.226662
2.97867 0.535607 0.904259
10.7541 4.90248 0.354909
3.22892 1.59002 0.765683
1.71389 5.31668 0.388233
1.04384 0.669094 0.412383
2.00018 1.75251 2.35759
4.88852 11.4074 0.315428
1.94903 2.0759 1.67658
   </Points>
   <Cells>
    <DataArray type="Int64" Name="connectivity" format="ascii">
0
1
2
3
4
5
6
7
8
9
10
11
12
13
14
15
16
17
18
19
    </DataArray>
    <DataArray type="Int64" Name="offsets" format="ascii">
1
2
3
4
5
6
7
8
9
10
11
12
13
14
15
16
17
18
19
20
    </DataArray>
    <DataArray type="Int64" Name="types" format="ascii">
1
1
1
1
1
1
1
1
1
1
1
1
1
1
1
1
1
1
1
1
    </DataArray>
   </Cells>
  </Piece>
 </UnstructuredGrid>
</VTKFile>