<?xml version="1.0"?>
<VTKFile type="UnstructuredGrid" version="0.1" byte_order="LittleEndian" compressor="vtkZLibDataCompressor">
 <UnstructuredGrid GhostLevel="0">
  <Piece NumberOfPoints="20" NumberOfCells="20">
   <PointData>
    <DataArray type="Float64" Name="radius"/>
0.1
0.1
0.1
0.1
0.1
0.1
0.1
0.1
0.1
0.1
0.1
0.1
0.1
0.1
0.1
0.1
0.1
0.1
0.1
0.1
    <DataArray type="Float64" Name="mass"/>
10.472
10.472
10.472
10.472
10.472
10.472
10.472
10.472
10.472
10.472
10.472
10.472
10.472
10.472
10.472
10.472
10.472
10.472
10.472
10.472
    <DataArray type="Float64" Name="particleIndex"/>
0
1
2
3
4
5
6
7
8
9
10
11
12
13
14
15
16
17
18
19
    <DataArray type="Float64" Name="clusterIndex"/>
0
1
2
3
4
5
6
7
8
9
10
11
12
13
14
15
16
17
18
19
    <DataArray type="Float64" Name="v" NumberOfComponents="3"/>
-0.0206321 0.107346 1.78174
0.178578 -0.100397 0.145443
-1.57722 0.163099 -0.786673
0.540329 0.601426 -0.980971
-0.578668 0.467617 1.09495
0.665729 0.336774 0.591725
-0.424001 -0.83972 -1.50319
-0.676872 -0.535142 -1.79883
-0.148644 0.571772 -0.0393491
-1.59174 1.02243 -3.06562
-0.812264 0.201616 0.499579
0.020646 2.91598 -0.432336
1.0714 -1.38309 0.737892
3.94761 1.42358 0.000261528
0.961035 -0.434531 0.379003
-0.196919 1.98372 1.12687
-1.56308 -1.30697 -0.678042
0.0177678 0.0480232 4.33855
1.61253 5.5054 -0.703046
0.014323 0.00386523 6.74574
    <DataArray type="Float64" Name="w" NumberOfComponents="3"/>
0.170727 0.0333866 4.39584e-26
1.00647 1.79023 -0.00405638
-1.64895 -15.9346 0.0265695
-6.18521 5.55686 0.0511853
-4.81349 -5.95762 -0.0808412
-3.48122 6.88161 0.00120054
8.73123 -4.37835 0.143457
5.43433 -7.00305 -1.61612
-6.11245 -1.5856 0.046343
15.1124 15.3043 1.55357
-2.04563 -8.2414 0.000385248
-2.04419 1.70386e-05 -0.269022
-6.4869 8.09889 9.307
-14.1879 39.3596 3.25591
4.64259 10.2931 0.00717662
-20.1644 -2.00003 -0.000125115
11.2107 1.96575 9.29734
0.0115244 -0.00287739 7.87463e-23
-23.612 6.69287 -0.399415
0.00678661 0.000558394 1.82854e-25
    <DataArray type="Float64" Name="FParticle" NumberOfComponents="3"/>
0 0 0
0 0 0
0 0 0
0 0 0
0 0 0
0 0 0
0 0 0
0 0 0
0 0 0
0 0 0
0 0 0
0 0 0
0 0 0
0 0 0
0 0 0
0 0 0
0 0 0
0 0 0
0 0 0
0 0 0
    <DataArray type="Float64" Name="FGrav" NumberOfComponents="3"/>
0 0 -102.73
0 0 -102.73
0 0 -102.73
0 0 -102.73
0 0 -102.73
0 0 -102.73
0 0 -102.73
0 0 -102.73
0 0 -102.73
0 0 -102.73
0 0 -102.73
0 0 -102.73
0 0 -102.73
0 0 -102.73
0 0 -102.73
0 0 -102.73
0 0 -102.73
0 0 -102.73
0 0 -102.73
0 0 -102.73
    <DataArray type="Float64" Name="MParticle" NumberOfComponents="3"/>
0 0 0
0 0 0
0 0 0
0 0 0
0 0 0
0 0 0
0 0 0
0 0 0
0 0 0
0 0 0
0 0 0
0 0 0
0 0 0
0 0 0
0 0 0
0 0 0
0 0 0
0 0 0
0 0 0
0 0 0
    <DataArray type="Float64" Name="FWall" NumberOfComponents="3"/>
0 0 0
-44.7502 25.1586 227.718
0 0 0
0 0 0
0 0 0
0 0 0
0 0 0
0 0 0
0 0 0
0 0 0
0 0 0
0 0 0
0 0 0
0 0 0
0 0 0
0 0 0
0 0 0
0 0 0
0 0 0
0 0 0
    <DataArray type="Float64" Name="MWall" NumberOfComponents="3"/>
0 0 0
2.51586 4.47502 0
0 0 0
0 0 0
0 0 0
0 0 0
0 0 0
0 0 0
0 0 0
0 0 0
0 0 0
0 0 0
0 0 0
0 0 0
0 0 0
0 0 0
0 0 0
0 0 0
0 0 0
0 0 0
    <DataArray type="Float64" Name="FHydro" NumberOfComponents="3"/>
0 0 0
0 0 0
0 0 0
0 0 0
0 0 0
0 0 0
0 0 0
0 0 0
0 0 0
0 0 0
0 0 0
0 0 0
0 0 0
0 0 0
0 0 0
0 0 0
0 0 0
0 0 0
0 0 0
0 0 0
    <DataArray type="Float64" Name="FSpringP" NumberOfComponents="3"/>
0 0 0
0 0 0
0 0 0
0 0 0
0 0 0
0 0 0
0 0 0
0 0 0
0 0 0
0 0 0
0 0 0
0 0 0
0 0 0
0 0 0
0 0 0
0 0 0
0 0 0
0 0 0
0 0 0
0 0 0
    <DataArray type="Float64" Name="FSpringW" NumberOfComponents="3"/>
0 0 0
-44.7502 25.1586 0
0 0 0
0 0 0
0 0 0
0 0 0
0 0 0
0 0 0
0 0 0
0 0 0
0 0 0
0 0 0
0 0 0
0 0 0
0 0 0
0 0 0
0 0 0
0 0 0
0 0 0
0 0 0
    <DataArray type="Float64" Name="MRolling" NumberOfComponents="3"/>
0 0 0
-2.23192 -3.96997 0.00899532
0 0 0
0 0 0
0 0 0
0 0 0
0 0 0
0 0 0
0 0 0
0 0 0
0 0 0
0 0 0
0 0 0
0 0 0
0 0 0
0 0 0
0 0 0
0 0 0
0 0 0
0 0 0
   </PointData>
   <CellData>
   </CellData>
   <Points>
    <DataArray type="Float64" Name="Points" NumberOfComponents="3"/>
2.00046 2.39029 1.69342
2.61053 1.6537 0.137386
0.324527 1.90863 0.194291
2.52772 2.53889 0.187267
1.06982 2.68048 0.206746
3.4117 2.46172 0.235769
1.98683 1.01725 0.262863
1.43564 1.98415 0.151554
1.54183 3.02515 0.465078
0.985235 2.6994 0.644357
1.20934 2.05712 0.153742
2.06939 0.216676 0.23611
2.33701 1.30749 0.886048
4.85431 2.77512 0.471731
2.80313 1.78239 1.07877
1.87704 3.67233 0.323619
1.75595 1.37274 0.469041
1.88884 1.75037 1.97742
2.61872 3.63295 0.551072
1.91684 1.96618 0.983607
   </Points>
   <Cells>
    <DataArray type="Int64" Name="connectivity" format="ascii">
0
1
2
3
4
5
6
7
8
9
10
11
12
13
14
15
16
17
18
19
    </DataArray>
    <DataArray type="Int64" Name="offsets" format="ascii">
1
2
3
4
5
6
7
8
9
10
11
12
13
14
15
16
17
18
19
20
    </DataArray>
    <DataArray type="Int64" Name="types" format="ascii">
1
1
1
1
1
1
1
1
1
1
1
1
1
1
1
1
1
1
1
1
    </DataArray>
   </Cells>
  </Piece>
 </UnstructuredGrid>
</VTKFile>