<?xml version="1.0"?>
<VTKFile type="UnstructuredGrid" version="0.1" byte_order="LittleEndian" compressor="vtkZLibDataCompressor">
 <UnstructuredGrid GhostLevel="0">
  <Piece NumberOfPoints="20" NumberOfCells="20">
   <PointData>
    <DataArray type="Float64" Name="radius"/>
0.1
0.1
0.1
0.1
0.1
0.1
0.1
0.1
0.1
0.1
0.1
0.1
0.1
0.1
0.1
0.1
0.1
0.1
0.1
0.1
    <DataArray type="Float64" Name="mass"/>
10.472
10.472
10.472
10.472
10.472
10.472
10.472
10.472
10.472
10.472
10.472
10.472
10.472
10.472
10.472
10.472
10.472
10.472
10.472
10.472
    <DataArray type="Float64" Name="particleIndex"/>
0
1
2
3
4
5
6
7
8
9
10
11
12
13
14
15
16
17
18
19
    <DataArray type="Float64" Name="clusterIndex"/>
0
1
2
3
4
5
6
7
8
9
10
11
12
13
14
15
16
17
18
19
    <DataArray type="Float64" Name="v" NumberOfComponents="3"/>
6.37641e-05 0.146231 0.0341401
0.126551 -0.0725179 0.0348151
-0.123915 -0.0710064 0.0363636
0.000146346 0.000509905 0.175578
0.0015076 0.00133123 0.288336
0.00161733 0.00123127 0.126081
0.000991814 0.000905862 -0.278696
0.000143287 0.000196421 0.0341249
-0.000314178 -0.000132713 0.178929
-0.000137528 0.000250636 0.0722274
-0.000109476 4.92215e-05 -0.0280079
-0.000115078 -0.000409887 -0.064836
-0.000163757 -0.000669525 -0.37912
-0.00027193 -0.000821843 -0.162397
-0.000145278 -0.000244571 -0.235323
6.74233e-05 0.000457044 -0.317974
-5.039e-05 0.000194036 0.352887
-0.000153616 -0.000122952 0.18691
1.41417e-06 0.00011065 -0.120504
9.38622e-06 -1.47988e-06 -0.547511
    <DataArray type="Float64" Name="w" NumberOfComponents="3"/>
0.0231756 -0.000522344 -0.00032472
-0.0109984 -0.0191814 0.000404301
-0.00817713 0.0129165 -0.000290577
0.000632702 -0.000298723 -0.000116888
-0.00593129 0.00930967 -0.000641144
0.00644407 -0.00746667 -0.000277078
0.00101889 -0.000740343 -0.000583996
0.00562347 -0.00649046 -0.000493549
-0.00268993 0.00189698 -0.000532017
0.00057552 0.000451102 -0.000499856
0.00117125 0.000456904 -0.000422787
0.00383507 -0.0012411 -0.000392715
-0.00140247 0.000887271 -0.000274806
0.00182348 -0.00127655 -0.000268819
-0.00736782 0.00281885 -4.87005e-05
-0.000457369 -0.00104925 -0.00013007
0.00249308 -0.000709884 -0.000198009
0.000852542 -3.8815e-07 -5.42981e-05
-0.000363751 0.000176978 -0.000253266
0.000348104 0.000139393 3.78223e-05
    <DataArray type="Float64" Name="FParticle" NumberOfComponents="3"/>
8.07206 172.079 -403.111
151.096 -75.5132 -407.386
-129.015 -73.6413 -412.855
-27.5696 -22.2541 -634.358
-6.13396 -3.8682 420.479
5.69726 4.99765 518.621
-4.13481 -3.24708 34.0548
3.47101 1.64187 601.188
-0.629661 1.99257 -365.012
-3.07402 -7.37505 -137.258
4.36215 8.69893 -1161.08
-2.7386 -4.85486 179.97
-2.69378 -4.18081 -441.301
2.80556 6.18041 1792.53
-0.345525 -2.9225 -1602.51
0.831328 2.26644 2018.03
-0.00163478 0.056731 -852.691
0.00163478 -0.056731 852.691
0 0 0
0 0 0
    <DataArray type="Float64" Name="FGrav" NumberOfComponents="3"/>
0 0 -102.73
0 0 -102.73
0 0 -102.73
0 0 -102.73
0 0 -102.73
0 0 -102.73
0 0 -102.73
0 0 -102.73
0 0 -102.73
0 0 -102.73
0 0 -102.73
0 0 -102.73
0 0 -102.73
0 0 -102.73
0 0 -102.73
0 0 -102.73
0 0 -102.73
0 0 -102.73
0 0 -102.73
0 0 -102.73
    <DataArray type="Float64" Name="MParticle" NumberOfComponents="3"/>
13.1447 0.645048 0.538572
-7.5359 -11.4513 -0.672378
-7.82785 13.4524 0.046644
-2.391 2.99501 -0.0872752
0.166558 -0.0414024 -8.13171e-05
0.23103 -0.215527 0.000123078
0.0222998 -0.0679975 0.000196506
0.103286 -0.107576 5.95547e-05
-0.209566 0.215099 -1.67737e-05
0.370181 -0.133804 -0.000123675
0.188523 -0.00652659 -0.000179958
-0.235904 0.153609 -3.01185e-05
0.71945 -0.359239 -0.000118584
0.512404 -0.356843 -0.000105222
0.0921926 -0.155083 5.70028e-05
0.170421 -0.103852 4.64304e-05
0.00165392 0.00245919 1.60443e-07
0.00165392 0.00245919 1.60443e-07
0 0 0
0 0 0
    <DataArray type="Float64" Name="FWall" NumberOfComponents="3"/>
0.0441756 -55.139 137.848
-49.8076 28.6464 143.645
55.4469 31.8678 159.881
0 0 0
0 0 0
0 0 0
0 0 0
0 0 0
0 0 0
0 0 0
0 0 0
0 0 0
0 0 0
0 0 0
0 0 0
0 0 0
0 0 0
0 0 0
0 0 0
0 0 0
    <DataArray type="Float64" Name="MWall" NumberOfComponents="3"/>
-5.5139 -0.00441756 0
2.86464 4.98076 0
3.18678 -5.54469 0
0 0 0
0 0 0
0 0 0
0 0 0
0 0 0
0 0 0
0 0 0
0 0 0
0 0 0
0 0 0
0 0 0
0 0 0
0 0 0
0 0 0
0 0 0
0 0 0
0 0 0
    <DataArray type="Float64" Name="FHydro" NumberOfComponents="3"/>
0 0 0
0 0 0
0 0 0
0 0 0
0 0 0
0 0 0
0 0 0
0 0 0
0 0 0
0 0 0
0 0 0
0 0 0
0 0 0
0 0 0
0 0 0
0 0 0
0 0 0
0 0 0
0 0 0
0 0 0
    <DataArray type="Float64" Name="FSpringP" NumberOfComponents="3"/>
8.40261 -99.8473 -85.492
-84.7996 61.0309 -89.0041
102.041 59.7276 -101.217
-22.1555 -19.1916 275.71
-7.39088 -5.10482 0.0012746
5.64964 4.4601 0.0030043
-4.17435 -2.37279 -0.0025928
3.77856 1.56293 0.00154486
-0.551809 1.56559 0.000513314
-2.93722 -7.36306 -0.00327417
4.20998 9.17964 0.0020195
-2.60863 -4.93538 0.000240496
-2.51984 -4.61815 -0.00075512
2.5438 6.68861 0.000425794
-0.526203 -2.4865 0.000638514
1.03852 1.70421 -0.000368173
0.0245919 -0.0165392 -2.17757e-06
-0.0245919 0.0165392 2.17757e-06
0 0 0
0 0 0
    <DataArray type="Float64" Name="FSpringW" NumberOfComponents="3"/>
0.0441756 -55.139 0
-49.8076 28.6464 0
55.4469 31.8678 0
0 0 0
0 0 0
0 0 0
0 0 0
0 0 0
0 0 0
0 0 0
0 0 0
0 0 0
0 0 0
0 0 0
0 0 0
0 0 0
0 0 0
0 0 0
0 0 0
0 0 0
    <DataArray type="Float64" Name="MRolling" NumberOfComponents="3"/>
-3.16142 -2.214 0.448375
3.70342 2.00926 -0.317761
3.13628 -4.20101 0.248891
-8.46202 11.4273 -0.602493
9.90216 -13.1549 0.551456
-7.16127 9.34616 -0.326708
5.62594 -7.04139 0.203173
-3.82646 4.39881 -0.0852765
3.82645 -2.61202 0.00306183
-6.21365 3.57703 0.0474451
11.9849 -6.55549 -0.110807
-16.4208 8.66331 0.15198
17.5955 -9.23723 -0.170178
-11.5845 6.15323 0.114338
10.6274 -5.92218 -0.138912
-8.7867 4.95906 0.112695
3.90152 -1.68435 -0.343782
-3.90152 1.68435 0.343782
0 0 0
0 0 0
   </PointData>
   <CellData>
   </CellData>
   <Points>
    <DataArray type="Float64" Name="Points" NumberOfComponents="3"/>
2.00006 2.12991 0.137431
2.11255 1.93509 0.137428
1.8878 1.93522 0.13742
2.00022 2.00011 0.28904
2.00032 2.00022 0.487182
2.00027 2.0002 0.685745
2.00018 2.00004 0.884826
2.00008 2.00007 1.08394
1.99999 2.00012 1.28366
1.99997 2.00001 1.48301
1.99999 1.99993 1.68222
1.99999 1.99994 1.88028
1.99999 1.99995 2.07851
2.00001 1.99991 2.2763
2 1.99997 2.47589
1.99998 2.00003 2.67387
1.99998 2.00001 2.87412
1.99998 1.99999 3.07326
2 2.00002 3.27387
2 2 3.4992
   </Points>
   <Cells>
    <DataArray type="Int64" Name="connectivity" format="ascii">
0
1
2
3
4
5
6
7
8
9
10
11
12
13
14
15
16
17
18
19
    </DataArray>
    <DataArray type="Int64" Name="offsets" format="ascii">
1
2
3
4
5
6
7
8
9
10
11
12
13
14
15
16
17
18
19
20
    </DataArray>
    <DataArray type="Int64" Name="types" format="ascii">
1
1
1
1
1
1
1
1
1
1
1
1
1
1
1
1
1
1
1
1
    </DataArray>
   </Cells>
  </Piece>
 </UnstructuredGrid>
</VTKFile>