<?xml version="1.0"?>
<VTKFile type="UnstructuredGrid" version="0.1" byte_order="LittleEndian" compressor="vtkZLibDataCompressor">
 <UnstructuredGrid GhostLevel="0">
  <Piece NumberOfPoints="20" NumberOfCells="20">
   <PointData>
    <DataArray type="Float64" Name="radius"/>
0.1
0.1
0.1
0.1
0.1
0.1
0.1
0.1
0.1
0.1
0.1
0.1
0.1
0.1
0.1
0.1
0.1
0.1
0.1
0.1
    <DataArray type="Float64" Name="mass"/>
10.472
10.472
10.472
10.472
10.472
10.472
10.472
10.472
10.472
10.472
10.472
10.472
10.472
10.472
10.472
10.472
10.472
10.472
10.472
10.472
    <DataArray type="Float64" Name="particleIndex"/>
0
1
2
3
4
5
6
7
8
9
10
11
12
13
14
15
16
17
18
19
    <DataArray type="Float64" Name="clusterIndex"/>
0
1
2
3
4
5
6
7
8
9
10
11
12
13
14
15
16
17
18
19
    <DataArray type="Float64" Name="v" NumberOfComponents="3"/>
-0.0206329 0.10735 3.84194
0.453174 -0.254775 -0.0054672
-1.57728 0.163105 1.27344
0.54035 0.601449 1.07913
-1.33956 1.06888 -0.114583
1.05921 0.535821 -0.438116
-0.424017 -0.839751 0.556887
-0.676898 -0.535163 0.261238
-0.14865 0.571793 2.02079
-1.5918 1.02247 -1.00559
-1.37153 0.340445 -0.599348
0.213207 -2.91609 0.000514594
0.15322 -0.148519 0.720031
3.94776 1.42363 2.0604
0.961072 -0.434547 2.43916
-0.311684 3.2525 -1.32094
-0.644913 -2.54165 3.4601
0.0177685 0.048025 6.39885
1.61259 5.5056 1.35707
-0.117884 -0.041368 -7.02649
    <DataArray type="Float64" Name="w" NumberOfComponents="3"/>
0.170749 0.0333908 4.39639e-26
2.56474 4.56196 -0.113637
-1.64916 -15.9367 0.0265728
-6.18599 5.55756 0.0511917
0.607538 2.19027 -2.66957
-5.48003 10.8327 0.00672705
8.73233 -4.3789 0.143475
5.43502 -7.00393 -1.61632
-6.11322 -1.5858 0.0463489
15.1143 15.3062 1.55377
-2.38053 -9.59197 0.00186036
29.2837 2.11148 2.17554
1.85337 1.72192 0.0128588
-14.1897 39.3645 3.25632
4.64318 10.2944 0.00717753
-10.8671 -1.4649 -0.000440853
25.4728 -6.46343 -3.25755e-05
0.0115259 -0.00287775 7.87563e-23
-23.615 6.69372 -0.399465
0.216632 -0.975395 0.106174
    <DataArray type="Float64" Name="FParticle" NumberOfComponents="3"/>
0 0 0
0 0 0
0 0 0
0 0 0
0 0 0
0 0 0
0 0 0
0 0 0
0 0 0
0 0 0
0 0 0
0 0 0
0 0 0
0 0 0
0 0 0
0 0 0
0 0 0
0 0 0
0 0 0
0 0 0
    <DataArray type="Float64" Name="FGrav" NumberOfComponents="3"/>
0 0 -102.73
0 0 -102.73
0 0 -102.73
0 0 -102.73
0 0 -102.73
0 0 -102.73
0 0 -102.73
0 0 -102.73
0 0 -102.73
0 0 -102.73
0 0 -102.73
0 0 -102.73
0 0 -102.73
0 0 -102.73
0 0 -102.73
0 0 -102.73
0 0 -102.73
0 0 -102.73
0 0 -102.73
0 0 -102.73
    <DataArray type="Float64" Name="MParticle" NumberOfComponents="3"/>
0 0 0
0 0 0
0 0 0
0 0 0
0 0 0
0 0 0
0 0 0
0 0 0
0 0 0
0 0 0
0 0 0
0 0 0
0 0 0
0 0 0
0 0 0
0 0 0
0 0 0
0 0 0
0 0 0
0 0 0
    <DataArray type="Float64" Name="FWall" NumberOfComponents="3"/>
0 0 0
0 0 0
0 0 0
0 0 0
0 0 0
0 0 0
0 0 0
0 0 0
0 0 0
0 0 0
0 0 0
0 0 0
0 0 0
0 0 0
0 0 0
0 0 0
0 0 0
0 0 0
0 0 0
0 0 0
    <DataArray type="Float64" Name="MWall" NumberOfComponents="3"/>
0 0 0
0 0 0
0 0 0
0 0 0
0 0 0
0 0 0
0 0 0
0 0 0
0 0 0
0 0 0
0 0 0
0 0 0
0 0 0
0 0 0
0 0 0
0 0 0
0 0 0
0 0 0
0 0 0
0 0 0
    <DataArray type="Float64" Name="FHydro" NumberOfComponents="3"/>
0 0 0
0 0 0
0 0 0
0 0 0
0 0 0
0 0 0
0 0 0
0 0 0
0 0 0
0 0 0
0 0 0
0 0 0
0 0 0
0 0 0
0 0 0
0 0 0
0 0 0
0 0 0
0 0 0
0 0 0
    <DataArray type="Float64" Name="FSpringP" NumberOfComponents="3"/>
0 0 0
0 0 0
0 0 0
0 0 0
0 0 0
0 0 0
0 0 0
0 0 0
0 0 0
0 0 0
0 0 0
0 0 0
0 0 0
0 0 0
0 0 0
0 0 0
0 0 0
0 0 0
0 0 0
0 0 0
    <DataArray type="Float64" Name="FSpringW" NumberOfComponents="3"/>
0 0 0
0 0 0
0 0 0
0 0 0
0 0 0
0 0 0
0 0 0
0 0 0
0 0 0
0 0 0
0 0 0
0 0 0
0 0 0
0 0 0
0 0 0
0 0 0
0 0 0
0 0 0
0 0 0
0 0 0
    <DataArray type="Float64" Name="MRolling" NumberOfComponents="3"/>
0 0 0
0 0 0
0 0 0
0 0 0
0 0 0
0 0 0
0 0 0
0 0 0
0 0 0
0 0 0
0 0 0
0 0 0
0 0 0
0 0 0
0 0 0
0 0 0
0 0 0
0 0 0
0 0 0
0 0 0
   </PointData>
   <CellData>
   </CellData>
   <Points>
    <DataArray type="Float64" Name="Points" NumberOfComponents="3"/>
2.0048 2.36774 1.10293
2.54217 1.69213 0.138589
0.65575 1.87438 0.143183
2.41425 2.41259 0.176961
1.30891 2.48936 0.267188
3.22734 2.36846 0.243836
2.07588 1.19359 0.362227
1.57778 2.09653 0.313003
1.57304 2.90508 0.257029
1.31951 2.48469 1.07184
1.42591 2.00336 0.148155
2.03059 0.64973 0.401526
2.13633 1.56627 0.568955
4.0253 2.47616 0.255363
2.60131 1.87364 0.782862
1.92926 3.13567 0.299418
2.05989 1.67888 0.340939
1.88511 1.74028 0.849994
2.28008 2.4768 0.482401
1.92563 1.9694 0.786745
   </Points>
   <Cells>
    <DataArray type="Int64" Name="connectivity" format="ascii">
0
1
2
3
4
5
6
7
8
9
10
11
12
13
14
15
16
17
18
19
    </DataArray>
    <DataArray type="Int64" Name="offsets" format="ascii">
1
2
3
4
5
6
7
8
9
10
11
12
13
14
15
16
17
18
19
20
    </DataArray>
    <DataArray type="Int64" Name="types" format="ascii">
1
1
1
1
1
1
1
1
1
1
1
1
1
1
1
1
1
1
1
1
    </DataArray>
   </Cells>
  </Piece>
 </UnstructuredGrid>
</VTKFile>