<?xml version="1.0"?>
<VTKFile type="UnstructuredGrid" version="0.1" byte_order="LittleEndian" compressor="vtkZLibDataCompressor">
 <UnstructuredGrid GhostLevel="0">
  <Piece NumberOfPoints="20" NumberOfCells="20">
   <PointData>
    <DataArray type="Float64" Name="radius"/>
0.1
0.1
0.1
0.1
0.1
0.1
0.1
0.1
0.1
0.1
0.1
0.1
0.1
0.1
0.1
0.1
0.1
0.1
0.1
0.1
    <DataArray type="Float64" Name="mass"/>
10.472
10.472
10.472
10.472
10.472
10.472
10.472
10.472
10.472
10.472
10.472
10.472
10.472
10.472
10.472
10.472
10.472
10.472
10.472
10.472
    <DataArray type="Float64" Name="particleIndex"/>
0
1
2
3
4
5
6
7
8
9
10
11
12
13
14
15
16
17
18
19
    <DataArray type="Float64" Name="clusterIndex"/>
0
1
2
3
4
5
6
7
8
9
10
11
12
13
14
15
16
17
18
19
    <DataArray type="Float64" Name="v" NumberOfComponents="3"/>
-1.33148e-06 -2.56832e-07 -0.109727
-2.06159e-07 -2.9574e-07 -0.0534492
-1.29478e-06 -1.12842e-07 0.0577491
0.00465782 -0.00336074 0.373548
-0.833009 -0.215534 -0.16569
1.64366 -0.0230286 -0.592787
1.3047 -0.261882 -0.812381
-0.0856953 0.348766 -1.02471
-0.697317 0.725303 -1.48524
-0.524751 0.0724575 -2.16614
-0.316357 -0.326711 -2.15026
-0.213203 -0.507455 -0.808799
0.108225 -0.257381 -1.56966
0.367713 -0.189956 -1.92468
0.193554 0.142097 -1.71298
0.0111196 0.405494 -1.58999
-0.118301 0.212254 -1.47326
-0.0539518 -0.242261 0.384917
0.0150292 -0.00333006 -1.85009
-0.00437494 -0.0108474 -1.16623
    <DataArray type="Float64" Name="w" NumberOfComponents="3"/>
2.71635e-06 -1.41162e-05 5.28963e-264
5.55772e-06 -2.72771e-06 1.97638e-240
1.00258e-06 -1.15039e-05 -2.59132e-283
-0.00134682 -0.00407495 -3.31606e-22
-0.500106 9.88931 0.317289
-0.396677 11.8467 0.404064
-0.550604 -5.06531 -0.00550511
-5.03541 -8.28075 -0.803751
0.869459 -0.745876 -0.0385627
2.57571 1.64386 0.498368
0.29567 0.245566 0.174708
-1.48769 2.37144 0.264721
-1.485 2.37099 0.264856
-1.25473 -0.888482 0.146191
-1.46981 -0.86525 0.128173
0.740239 -0.753279 0.149853
1.0798 -0.517762 0.149194
1.13306 0.317064 0.165867
-0.0281138 0.135755 0.00487901
0.0111516 -0.05126 0.00263474
    <DataArray type="Float64" Name="FParticle" NumberOfComponents="3"/>
0 0 0
0 0 0
0 0 0
0 0 0
0 0 0
0 0 0
0 0 0
0 0 0
0 0 0
0 0 0
0 0 0
-646.531 -229.922 -3198.25
646.531 229.922 3198.25
0 0 0
0 0 0
106.468 169.559 -1874.11
-106.468 -169.559 1874.11
0 0 0
0 0 0
0 0 0
    <DataArray type="Float64" Name="FGrav" NumberOfComponents="3"/>
0 0 -102.73
0 0 -102.73
0 0 -102.73
0 0 -102.73
0 0 -102.73
0 0 -102.73
0 0 -102.73
0 0 -102.73
0 0 -102.73
0 0 -102.73
0 0 -102.73
0 0 -102.73
0 0 -102.73
0 0 -102.73
0 0 -102.73
0 0 -102.73
0 0 -102.73
0 0 -102.73
0 0 -102.73
0 0 -102.73
    <DataArray type="Float64" Name="MParticle" NumberOfComponents="3"/>
0 0 0
0 0 0
0 0 0
0 0 0
0 0 0
0 0 0
0 0 0
0 0 0
0 0 0
0 0 0
0 0 0
-2.2908 3.63601 0.201696
-2.2908 3.63601 0.201696
0 0 0
0 0 0
-0.0723777 0.0697407 0.00219801
-0.0723777 0.0697407 0.00219801
0 0 0
0 0 0
0 0 0
    <DataArray type="Float64" Name="FWall" NumberOfComponents="3"/>
0 0 0
0 0 0
0 0 0
0 0 0
0 0 0
0 0 0
0 0 0
0 0 0
0 0 0
0 0 0
0 0 0
0 0 0
0 0 0
0 0 0
0 0 0
0 0 0
0 0 0
0 0 0
0 0 0
0 0 0
    <DataArray type="Float64" Name="MWall" NumberOfComponents="3"/>
0 0 0
0 0 0
0 0 0
0 0 0
0 0 0
0 0 0
0 0 0
0 0 0
0 0 0
0 0 0
0 0 0
0 0 0
0 0 0
0 0 0
0 0 0
0 0 0
0 0 0
0 0 0
0 0 0
0 0 0
    <DataArray type="Float64" Name="FHydro" NumberOfComponents="3"/>
0 0 0
0 0 0
0 0 0
0 0 0
0 0 0
0 0 0
0 0 0
0 0 0
0 0 0
0 0 0
0 0 0
0 0 0
0 0 0
0 0 0
0 0 0
0 0 0
0 0 0
0 0 0
0 0 0
0 0 0
    <DataArray type="Float64" Name="FSpringP" NumberOfComponents="3"/>
0 0 0
0 0 0
0 0 0
0 0 0
0 0 0
0 0 0
0 0 0
0 0 0
0 0 0
0 0 0
0 0 0
35.2943 22.7551 -9.34939
-35.2943 -22.7551 9.34939
0 0 0
0 0 0
0.695469 0.718488 0.103975
-0.695469 -0.718488 -0.103975
0 0 0
0 0 0
0 0 0
    <DataArray type="Float64" Name="FSpringW" NumberOfComponents="3"/>
0 0 0
0 0 0
0 0 0
0 0 0
0 0 0
0 0 0
0 0 0
0 0 0
0 0 0
0 0 0
0 0 0
0 0 0
0 0 0
0 0 0
0 0 0
0 0 0
0 0 0
0 0 0
0 0 0
0 0 0
    <DataArray type="Float64" Name="MRolling" NumberOfComponents="3"/>
0 0 0
0 0 0
0 0 0
0 0 0
0 0 0
0 0 0
0 0 0
0 0 0
0 0 0
0 0 0
0 0 0
16.1049 -2.72442 0.810062
-16.1049 2.72442 -0.810062
0 0 0
0 0 0
7.74353 5.37089 -0.0150268
-7.74353 -5.37089 0.0150268
0 0 0
0 0 0
0 0 0
   </PointData>
   <CellData>
   </CellData>
   <Points>
    <DataArray type="Float64" Name="Points" NumberOfComponents="3"/>
1.99987 2.22504 0.137912
2.19843 1.88535 0.138595
1.80558 1.88782 0.138272
1.99335 2.00184 0.14349
1.96998 1.98584 0.354105
2.12741 2.00018 0.500702
2.1098 1.99097 0.713301
2.0122 2.02801 0.889675
1.94067 2.06239 1.07407
1.94674 1.99446 1.27214
1.95656 1.96529 1.47209
1.96411 1.94924 1.6795
2.00512 1.96444 1.87131
2.02797 1.97964 2.08791
2.01937 2.01049 2.2914
2.00503 2.03637 2.4949
1.99391 2.01862 2.6919
1.99344 1.99353 2.90869
2.00458 1.99909 3.13207
1.99883 1.9963 3.49642
   </Points>
   <Cells>
    <DataArray type="Int64" Name="connectivity" format="ascii">
0
1
2
3
4
5
6
7
8
9
10
11
12
13
14
15
16
17
18
19
    </DataArray>
    <DataArray type="Int64" Name="offsets" format="ascii">
1
2
3
4
5
6
7
8
9
10
11
12
13
14
15
16
17
18
19
20
    </DataArray>
    <DataArray type="Int64" Name="types" format="ascii">
1
1
1
1
1
1
1
1
1
1
1
1
1
1
1
1
1
1
1
1
    </DataArray>
   </Cells>
  </Piece>
 </UnstructuredGrid>
</VTKFile>