<?xml version="1.0"?>
<VTKFile type="UnstructuredGrid" version="0.1" byte_order="LittleEndian" compressor="vtkZLibDataCompressor">
 <UnstructuredGrid GhostLevel="0">
  <Piece NumberOfPoints="20" NumberOfCells="20">
   <PointData>
    <DataArray type="Float64" Name="radius"/>
0.1
0.1
0.1
0.1
0.1
0.1
0.1
0.1
0.1
0.1
0.1
0.1
0.1
0.1
0.1
0.1
0.1
0.1
0.1
0.1
    <DataArray type="Float64" Name="mass"/>
10.472
10.472
10.472
10.472
10.472
10.472
10.472
10.472
10.472
10.472
10.472
10.472
10.472
10.472
10.472
10.472
10.472
10.472
10.472
10.472
    <DataArray type="Float64" Name="particleIndex"/>
0
1
2
3
4
5
6
7
8
9
10
11
12
13
14
15
16
17
18
19
    <DataArray type="Float64" Name="clusterIndex"/>
0
1
2
3
4
5
6
7
8
9
10
11
12
13
14
15
16
17
18
19
    <DataArray type="Float64" Name="v" NumberOfComponents="3"/>
0.00221107 -0.0115356 -3.60667
1.28501e-08 7.39373e-10 0.0991873
0.000104875 0.000165901 0.416332
9.23541e-05 -9.18353e-06 -0.915157
-0.000586822 -0.00010219 0.0734972
-0.000206072 0.000426883 -1.02884
-0.000731003 -0.0014991 -0.910519
-0.000785467 -0.000754221 0.225209
-0.000696777 0.00295228 -1.68383
0.00910642 -0.00487084 -2.82703
-6.13724e-06 -3.75803e-06 -0.44317
-0.0214662 -0.0165221 0.603388
-0.0218396 0.0191024 -0.579933
1.8406 0.663674 -1.49241
0.0049291 -0.00234633 0.706524
0.000738022 -0.00747464 2.08795
0.0134086 0.0148078 -1.70118
0.103289 0.0335193 1.47072
0.6269 2.14856 0.0433885
-0.00298131 -0.0100602 5.42339
    <DataArray type="Float64" Name="w" NumberOfComponents="3"/>
-0.00106042 -0.000161569 -2.60319e-50
3.50044e-08 -6.08367e-07 0
-0.00122578 0.00147507 2.20058e-93
-3.71838e-05 0.000932054 -1.23049e-112
0.000121706 -0.00531279 5.70936e-93
-0.00432773 -0.000307024 2.93799e-96
0.00833668 -0.00395353 1.22764e-71
0.00544473 -0.00578638 -1.12659e-94
-0.0127444 -0.00156218 -4.27084e-67
-0.00220344 -0.00119687 -2.71461e-30
-0.0043147 0.00716614 -1.19563e-177
-0.0375156 0.0485289 -5.3722e-22
0.00698287 0.0076986 1.06507e-23
-6.77437 18.7877 0.209123
0.000705225 -0.00109074 -1.15736e-43
-0.00188859 -0.000192662 4.38376e-27
0.00508079 -0.00457118 4.78621e-26
0.0406921 -0.12615 1.85822e-21
-21.9504 6.40461 -0.0221261
-0.00231346 -0.00144707 4.05348e-28
    <DataArray type="Float64" Name="FParticle" NumberOfComponents="3"/>
0 0 0
0 0 0
0 0 0
0 0 0
0 0 0
0 0 0
0 0 0
0 0 0
0 0 0
0 0 0
0 0 0
0 0 0
0 0 0
0 0 0
0 0 0
0 0 0
0 0 0
0 0 0
0 0 0
0 0 0
    <DataArray type="Float64" Name="FGrav" NumberOfComponents="3"/>
0 0 -102.73
0 0 -102.73
0 0 -102.73
0 0 -102.73
0 0 -102.73
0 0 -102.73
0 0 -102.73
0 0 -102.73
0 0 -102.73
0 0 -102.73
0 0 -102.73
0 0 -102.73
0 0 -102.73
0 0 -102.73
0 0 -102.73
0 0 -102.73
0 0 -102.73
0 0 -102.73
0 0 -102.73
0 0 -102.73
    <DataArray type="Float64" Name="MParticle" NumberOfComponents="3"/>
0 0 0
0 0 0
0 0 0
0 0 0
0 0 0
0 0 0
0 0 0
0 0 0
0 0 0
0 0 0
0 0 0
0 0 0
0 0 0
0 0 0
0 0 0
0 0 0
0 0 0
0 0 0
0 0 0
0 0 0
    <DataArray type="Float64" Name="FWall" NumberOfComponents="3"/>
0 0 0
0 0 0
0 0 0
0 0 0
0 0 0
0 0 0
0 0 0
0 0 0
0 0 0
0 0 0
62.6577 37.7276 2894.87
0 0 0
0 0 0
0 0 0
0 0 0
0 0 0
0 0 0
0 0 0
0 0 0
0 0 0
    <DataArray type="Float64" Name="MWall" NumberOfComponents="3"/>
0 0 0
0 0 0
0 0 0
0 0 0
0 0 0
0 0 0
0 0 0
0 0 0
0 0 0
0 0 0
3.77276 -6.26577 0
0 0 0
0 0 0
0 0 0
0 0 0
0 0 0
0 0 0
0 0 0
0 0 0
0 0 0
    <DataArray type="Float64" Name="FHydro" NumberOfComponents="3"/>
0 0 0
0 0 0
0 0 0
0 0 0
0 0 0
0 0 0
0 0 0
0 0 0
0 0 0
0 0 0
0 0 0
0 0 0
0 0 0
0 0 0
0 0 0
0 0 0
0 0 0
0 0 0
0 0 0
0 0 0
    <DataArray type="Float64" Name="FSpringP" NumberOfComponents="3"/>
0 0 0
0 0 0
0 0 0
0 0 0
0 0 0
0 0 0
0 0 0
0 0 0
0 0 0
0 0 0
0 0 0
0 0 0
0 0 0
0 0 0
0 0 0
0 0 0
0 0 0
0 0 0
0 0 0
0 0 0
    <DataArray type="Float64" Name="FSpringW" NumberOfComponents="3"/>
0 0 0
0 0 0
0 0 0
0 0 0
0 0 0
0 0 0
0 0 0
0 0 0
0 0 0
0 0 0
62.6577 37.7276 0
0 0 0
0 0 0
0 0 0
0 0 0
0 0 0
0 0 0
0 0 0
0 0 0
0 0 0
    <DataArray type="Float64" Name="MRolling" NumberOfComponents="3"/>
0 0 0
0 0 0
0 0 0
0 0 0
0 0 0
0 0 0
0 0 0
0 0 0
0 0 0
0 0 0
29.8649 -49.6003 8.32373e-174
0 0 0
0 0 0
0 0 0
0 0 0
0 0 0
0 0 0
0 0 0
0 0 0
0 0 0
   </PointData>
   <CellData>
   </CellData>
   <Points>
    <DataArray type="Float64" Name="Points" NumberOfComponents="3"/>
1.9866 2.46237 1.19194
2.62619 1.6449 0.138089
0.471078 1.94211 0.211238
2.62893 2.65165 0.193606
0.903561 2.83226 0.265371
3.6364 2.57552 0.199641
1.89934 0.843708 0.335725
1.33858 1.90779 0.313854
1.50752 3.15717 0.320582
0.7029 2.87348 0.650832
0.923313 2.12808 0.136053
2.28412 1.92246 0.266983
2.98414 0.530495 0.896508
9.72348 4.53086 0.358144
3.22307 1.59226 1.06044
1.71326 5.32239 0.166092
1.04384 0.668726 0.344898
1.92323 1.72752 2.2776
4.36948 9.6285 0.576073
1.95369 2.09117 1.78945
   </Points>
   <Cells>
    <DataArray type="Int64" Name="connectivity" format="ascii">
0
1
2
3
4
5
6
7
8
9
10
11
12
13
14
15
16
17
18
19
    </DataArray>
    <DataArray type="Int64" Name="offsets" format="ascii">
1
2
3
4
5
6
7
8
9
10
11
12
13
14
15
16
17
18
19
20
    </DataArray>
    <DataArray type="Int64" Name="types" format="ascii">
1
1
1
1
1
1
1
1
1
1
1
1
1
1
1
1
1
1
1
1
    </DataArray>
   </Cells>
  </Piece>
 </UnstructuredGrid>
</VTKFile>