<?xml version="1.0"?>
<VTKFile type="UnstructuredGrid" version="0.1" byte_order="LittleEndian" compressor="vtkZLibDataCompressor">
 <UnstructuredGrid GhostLevel="0">
  <Piece NumberOfPoints="20" NumberOfCells="20">
   <PointData>
    <DataArray type="Float64" Name="radius"/>
0.1
0.1
0.1
0.1
0.1
0.1
0.1
0.1
0.1
0.1
0.1
0.1
0.1
0.1
0.1
0.1
0.1
0.1
0.1
0.1
    <DataArray type="Float64" Name="mass"/>
10.472
10.472
10.472
10.472
10.472
10.472
10.472
10.472
10.472
10.472
10.472
10.472
10.472
10.472
10.472
10.472
10.472
10.472
10.472
10.472
    <DataArray type="Float64" Name="particleIndex"/>
0
1
2
3
4
5
6
7
8
9
10
11
12
13
14
15
16
17
18
19
    <DataArray type="Float64" Name="clusterIndex"/>
0
1
2
3
4
5
6
7
8
9
10
11
12
13
14
15
16
17
18
19
    <DataArray type="Float64" Name="v" NumberOfComponents="3"/>
-0.000342708 0.000939707 0.919285
-3.85993e-08 -2.22094e-09 0.128311
2.19385e-06 6.09652e-07 -0.0992833
-1.54264e-06 -1.07143e-05 0.240441
-8.62328e-07 -6.7241e-06 0.693611
-1.92098e-05 -1.04634e-05 -1.32538
1.80897e-05 -1.63507e-05 -2.08353
3.15273e-05 4.98468e-06 0.483232
0.000107582 1.50211e-06 0.0471793
0.000151993 0.000172724 4.05108
2.55327e-06 1.54361e-06 -0.657677
-9.58156e-05 1.28396e-05 -0.832535
0.00134674 -0.000655846 -3.66299
0.00451415 0.00162901 0.440992
0.000227077 0.00100966 -0.731639
-4.11879e-05 6.7873e-05 1.28316
-0.000397213 0.00015451 0.858129
-0.0113934 -0.00367988 -4.00291
-0.0137012 -0.0469615 -0.975924
-0.00267764 -0.00697679 2.38526
    <DataArray type="Float64" Name="w" NumberOfComponents="3"/>
0.000244118 -0.00265746 -3.49803e-98
-7.9999e-08 1.39036e-06 0
-2.08824e-06 7.51295e-06 2.52158e-260
0.000111867 -1.61185e-05 -2.86385e-278
8.03615e-05 -1.03564e-05 -8.25907e-238
9.6739e-05 -0.00017726 1.09337e-240
0.000116233 -5.07498e-06 7.51814e-171
-1.89803e-05 0.000314844 -9.29129e-216
5.33486e-05 0.00113555 -3.45685e-162
-0.00207054 0.00051148 1.21955e-102
-1.72342e-05 2.85068e-05 -4.94066e-324
8.31878e-05 -0.00100731 -2.35494e-141
0.00652637 0.0124359 1.03498e-68
0.000132766 -0.000260758 -4.03458e-48
-0.00696407 0.00566855 -3.76637e-90
-0.000161556 -0.000614694 1.5564e-122
-0.00105792 -0.00423425 2.04901e-119
-0.000430826 0.000839543 4.08519e-45
-0.0587509 0.0171432 -3.4318e-26
0.0350758 -0.0178124 2.83334e-51
    <DataArray type="Float64" Name="FParticle" NumberOfComponents="3"/>
0 0 0
0 0 0
0 0 0
0 0 0
0 0 0
0 0 0
0 0 0
0 0 0
0 0 0
0 0 0
0 0 0
0 0 0
0 0 0
0 0 0
0 0 0
0 0 0
0 0 0
0 0 0
0 0 0
0 0 0
    <DataArray type="Float64" Name="FGrav" NumberOfComponents="3"/>
0 0 -102.73
0 0 -102.73
0 0 -102.73
0 0 -102.73
0 0 -102.73
0 0 -102.73
0 0 -102.73
0 0 -102.73
0 0 -102.73
0 0 -102.73
0 0 -102.73
0 0 -102.73
0 0 -102.73
0 0 -102.73
0 0 -102.73
0 0 -102.73
0 0 -102.73
0 0 -102.73
0 0 -102.73
0 0 -102.73
    <DataArray type="Float64" Name="MParticle" NumberOfComponents="3"/>
0 0 0
0 0 0
0 0 0
0 0 0
0 0 0
0 0 0
0 0 0
0 0 0
0 0 0
0 0 0
0 0 0
0 0 0
0 0 0
0 0 0
0 0 0
0 0 0
0 0 0
0 0 0
0 0 0
0 0 0
    <DataArray type="Float64" Name="FWall" NumberOfComponents="3"/>
0 0 0
0 0 0
0 0 0
0 0 0
0 0 0
0 0 0
0 0 0
0 0 0
0 0 0
0 0 0
0 0 0
0 0 0
0 0 0
0 0 0
0 0 0
0 0 0
0 0 0
0 0 0
0 0 0
0 0 0
    <DataArray type="Float64" Name="MWall" NumberOfComponents="3"/>
0 0 0
0 0 0
0 0 0
0 0 0
0 0 0
0 0 0
0 0 0
0 0 0
0 0 0
0 0 0
0 0 0
0 0 0
0 0 0
0 0 0
0 0 0
0 0 0
0 0 0
0 0 0
0 0 0
0 0 0
    <DataArray type="Float64" Name="FHydro" NumberOfComponents="3"/>
0 0 0
0 0 0
0 0 0
0 0 0
0 0 0
0 0 0
0 0 0
0 0 0
0 0 0
0 0 0
0 0 0
0 0 0
0 0 0
0 0 0
0 0 0
0 0 0
0 0 0
0 0 0
0 0 0
0 0 0
    <DataArray type="Float64" Name="FSpringP" NumberOfComponents="3"/>
0 0 0
0 0 0
0 0 0
0 0 0
0 0 0
0 0 0
0 0 0
0 0 0
0 0 0
0 0 0
0 0 0
0 0 0
0 0 0
0 0 0
0 0 0
0 0 0
0 0 0
0 0 0
0 0 0
0 0 0
    <DataArray type="Float64" Name="FSpringW" NumberOfComponents="3"/>
0 0 0
0 0 0
0 0 0
0 0 0
0 0 0
0 0 0
0 0 0
0 0 0
0 0 0
0 0 0
0 0 0
0 0 0
0 0 0
0 0 0
0 0 0
0 0 0
0 0 0
0 0 0
0 0 0
0 0 0
    <DataArray type="Float64" Name="MRolling" NumberOfComponents="3"/>
0 0 0
0 0 0
0 0 0
0 0 0
0 0 0
0 0 0
0 0 0
0 0 0
0 0 0
0 0 0
0 0 0
0 0 0
0 0 0
0 0 0
0 0 0
0 0 0
0 0 0
0 0 0
0 0 0
0 0 0
   </PointData>
   <CellData>
   </CellData>
   <Points>
    <DataArray type="Float64" Name="Points" NumberOfComponents="3"/>
1.98738 2.45098 1.81141
2.62619 1.6449 0.137751
0.471102 1.94213 0.219551
2.62893 2.65161 0.233322
0.903479 2.83227 0.241095
3.63631 2.57548 0.164031
1.89885 0.842931 0.156666
1.33858 1.90744 0.304495
1.50713 3.15709 0.464899
0.70292 2.86927 0.221487
0.923324 2.12809 0.144404
2.28027 1.91924 0.25018
2.97911 0.53539 0.229602
10.7508 4.90128 0.461669
3.229 1.59035 1.0584
1.71384 5.31659 0.304311
1.04367 0.669083 0.45478
1.99642 1.75129 1.57076
4.884 11.3919 0.527529
1.94814 2.0736 2.9979
   </Points>
   <Cells>
    <DataArray type="Int64" Name="connectivity" format="ascii">
0
1
2
3
4
5
6
7
8
9
10
11
12
13
14
15
16
17
18
19
    </DataArray>
    <DataArray type="Int64" Name="offsets" format="ascii">
1
2
3
4
5
6
7
8
9
10
11
12
13
14
15
16
17
18
19
20
    </DataArray>
    <DataArray type="Int64" Name="types" format="ascii">
1
1
1
1
1
1
1
1
1
1
1
1
1
1
1
1
1
1
1
1
    </DataArray>
   </Cells>
  </Piece>
 </UnstructuredGrid>
</VTKFile>