<?xml version="1.0"?>
<VTKFile type="UnstructuredGrid" version="0.1" byte_order="LittleEndian" compressor="vtkZLibDataCompressor">
 <UnstructuredGrid GhostLevel="0">
  <Piece NumberOfPoints="15" NumberOfCells="15">
   <PointData>
    <DataArray type="Float64" Name="Elongation" NumberOfComponents="3"/>
0.000876267 0.000578035 0
0.000195892 0.000128895 0
9.49478e-05 -7.97405e-05 0
0.000192713 -0.000161392 0
-1.14361e-05 9.57183e-06 0
1.87645e-06 2.10744e-05 0
-1.8212e-05 -0.000196406 0
-7.45717e-06 -7.46232e-06 0
9.38509e-05 9.39426e-05 0
6.25167e-06 1.16221e-08 0
-0.000241754 7.09899e-05 0
-0.00043283 0.000416131 0
1.02004e-07 -1.76669e-07 0
-2.36496e-05 -4.13159e-05 0
0.000201194 -0.000201214 0
    <DataArray type="Float64" Name="norm"/>
0.00104975
0.000234494
0.00012399
0.000251367
1.49132e-05
2.11577e-05
0.000197249
1.05497e-05
0.00013279
6.25168e-06
0.000251962
0.000600422
2.04001e-07
4.76057e-05
0.000284546
   </PointData>
   <CellData>
   </CellData>
   <Points>
    <DataArray type="Float64" Name="Points" NumberOfComponents="3"/>
4.22783 3.61624 0.7
4.36933 3.75775 0.7
4.00647 2.6028 0.7
4.14796 2.46124 0.7
4.28938 2.31978 0.7
3.90041 2.85887 0.7
3.90059 3.05922 0.7
4.41119 2.62045 0.7
4.26983 2.76169 0.7
4.199 2.93191 0.7
4.22685 3.12705 0.7
4.32388 3.29429 0.7
4.28576 2.88225 0.7
4.28558 2.9819 0.7
4.4635 3.43667 0.7
   </Points>
   <Cells>
    <DataArray type="Int64" Name="connectivity" format="ascii">
0
1
2
3
4
5
6
7
8
9
10
11
12
13
14
    </DataArray>
    <DataArray type="Int64" Name="offsets" format="ascii">
1
2
3
4
5
6
7
8
9
10
11
12
13
14
15
    </DataArray>
    <DataArray type="Int64" Name="types" format="ascii">
1
1
1
1
1
1
1
1
1
1
1
1
1
1
1
    </DataArray>
   </Cells>
  </Piece>
 </UnstructuredGrid>
</VTKFile>