<?xml version="1.0"?>
<VTKFile type="UnstructuredGrid" version="0.1" byte_order="LittleEndian" compressor="vtkZLibDataCompressor">
 <UnstructuredGrid GhostLevel="0">
  <Piece NumberOfPoints="14" NumberOfCells="14">
   <PointData>
    <DataArray type="Float64" Name="Elongation" NumberOfComponents="3"/>
-6.46713e-05 -4.51386e-05 0
-9.69857e-05 -6.76274e-05 0
-2.02729e-05 -1.4126e-05 0
4.28596e-05 -3.50317e-05 0
2.32221e-05 -1.89573e-05 0
-1.43983e-06 -2.02885e-05 0
-2.52167e-06 -3.52832e-05 0
1.75799e-05 1.75716e-05 0
-9.01176e-06 -8.77336e-06 0
-9.00133e-06 3.68552e-09 0
-3.60133e-05 1.06013e-05 0
2.90906e-05 -2.90944e-05 0
1.31569e-06 -2.34097e-06 0
-2.73445e-05 2.73431e-05 0
    <DataArray type="Float64" Name="norm"/>
7.88662e-05
0.000118236
2.4709e-05
5.53549e-05
2.99774e-05
2.03395e-05
3.53731e-05
2.48558e-05
1.25771e-05
9.00133e-06
3.75412e-05
4.11431e-05
2.68537e-06
3.867e-05
   </PointData>
   <CellData>
   </CellData>
   <Points>
    <DataArray type="Float64" Name="Points" NumberOfComponents="3"/>
4.0842 3.4734 0.7
4.22566 3.61486 0.7
4.3671 3.7563 0.7
4.14885 2.46045 0.7
4.29033 2.319 0.7
3.90033 2.85707 0.7
3.90029 3.05713 0.7
4.40935 2.62202 0.7
4.26901 2.76428 0.7
4.19938 2.9358 0.7
4.22764 3.13161 0.7
4.32654 3.29814 0.7
4.28648 2.88483 0.7
4.4679 3.4395 0.7
   </Points>
   <Cells>
    <DataArray type="Int64" Name="connectivity" format="ascii">
0
1
2
3
4
5
6
7
8
9
10
11
12
13
    </DataArray>
    <DataArray type="Int64" Name="offsets" format="ascii">
1
2
3
4
5
6
7
8
9
10
11
12
13
14
    </DataArray>
    <DataArray type="Int64" Name="types" format="ascii">
1
1
1
1
1
1
1
1
1
1
1
1
1
1
    </DataArray>
   </Cells>
  </Piece>
 </UnstructuredGrid>
</VTKFile>