<?xml version="1.0"?>
<VTKFile type="UnstructuredGrid" version="0.1" byte_order="LittleEndian" compressor="vtkZLibDataCompressor">
 <UnstructuredGrid GhostLevel="0">
  <Piece NumberOfPoints="7" NumberOfCells="7">
   <PointData>
    <DataArray type="Float64" Name="Elongation" NumberOfComponents="3"/>
2.70665e-05 2.60721e-05 0
0.00528096 0.00614946 0
0.000634996 -0.000507497 0
-8.63425e-08 -3.50898e-06 0
-2.21889e-07 4.77954e-06 0
0.00118242 0.00106929 0
-1.01868e-06 1.12367e-06 0
    <DataArray type="Float64" Name="norm"/>
3.75813e-05
0.00810583
0.000812879
3.51004e-06
4.78469e-06
0.0015942
1.51669e-06
   </PointData>
   <CellData>
   </CellData>
   <Points>
    <DataArray type="Float64" Name="Points" NumberOfComponents="3"/>
4.07212 3.46337 0.7
4.20726 3.59775 0.7
4.29113 2.31834 0.7
3.90007 2.85246 0.7
3.90013 3.04536 0.7
4.26693 2.77093 0.7
4.50727 3.46943 0.7
   </Points>
   <Cells>
    <DataArray type="Int64" Name="connectivity" format="ascii">
0
1
2
3
4
5
6
    </DataArray>
    <DataArray type="Int64" Name="offsets" format="ascii">
1
2
3
4
5
6
7
    </DataArray>
    <DataArray type="Int64" Name="types" format="ascii">
1
1
1
1
1
1
1
    </DataArray>
   </Cells>
  </Piece>
 </UnstructuredGrid>
</VTKFile>