<?xml version="1.0"?>
<VTKFile type="UnstructuredGrid" version="0.1" byte_order="LittleEndian" compressor="vtkZLibDataCompressor">
 <UnstructuredGrid GhostLevel="0">
  <Piece NumberOfPoints="14" NumberOfCells="14">
   <PointData>
    <DataArray type="Float64" Name="Elongation" NumberOfComponents="3"/>
-4.50266e-05 -3.14258e-05 0
-8.00078e-05 -5.5783e-05 0
-1.48126e-05 -1.03205e-05 0
2.41635e-05 -1.97552e-05 0
2.23186e-05 -1.82254e-05 0
8.16404e-07 1.15276e-05 0
-1.49534e-06 -2.09523e-05 0
2.05049e-05 2.04954e-05 0
-9.25601e-06 -9.0073e-06 0
-3.03233e-06 -1.66503e-10 0
-3.4681e-05 1.02197e-05 0
1.68958e-05 -1.68988e-05 0
7.02726e-06 1.41347e-05 0
-2.89972e-05 2.89954e-05 0
    <DataArray type="Float64" Name="norm"/>
5.49088e-05
9.75345e-05
1.80534e-05
3.12113e-05
2.88147e-05
1.15564e-05
2.10056e-05
2.89916e-05
1.29153e-05
3.03233e-06
3.61554e-05
2.38964e-05
1.57852e-05
4.1007e-05
   </PointData>
   <CellData>
   </CellData>
   <Points>
    <DataArray type="Float64" Name="Points" NumberOfComponents="3"/>
4.08421 3.4734 0.7
4.22566 3.61486 0.7
4.3671 3.7563 0.7
4.14884 2.46046 0.7
4.29032 2.31901 0.7
3.90031 2.85706 0.7
3.90032 3.05711 0.7
4.40937 2.62201 0.7
4.26904 2.76429 0.7
4.19937 2.93583 0.7
4.2276 3.13162 0.7
4.32653 3.29814 0.7
4.28886 2.99127 0.7
4.4679 3.4395 0.7
   </Points>
   <Cells>
    <DataArray type="Int64" Name="connectivity" format="ascii">
0
1
2
3
4
5
6
7
8
9
10
11
12
13
    </DataArray>
    <DataArray type="Int64" Name="offsets" format="ascii">
1
2
3
4
5
6
7
8
9
10
11
12
13
14
    </DataArray>
    <DataArray type="Int64" Name="types" format="ascii">
1
1
1
1
1
1
1
1
1
1
1
1
1
1
    </DataArray>
   </Cells>
  </Piece>
 </UnstructuredGrid>
</VTKFile>