<?xml version="1.0"?>
<VTKFile type="UnstructuredGrid" version="0.1" byte_order="LittleEndian" compressor="vtkZLibDataCompressor">
 <UnstructuredGrid GhostLevel="0">
  <Piece NumberOfPoints="14" NumberOfCells="14">
   <PointData>
    <DataArray type="Float64" Name="Elongation" NumberOfComponents="3"/>
-8.93259e-06 -6.25292e-06 0
0.000212406 0.000148108 0
8.06939e-06 5.62186e-06 0
0.00051054 -0.00042094 0
3.53208e-05 -2.90881e-05 0
2.78404e-05 0.000405356 0
1.83418e-05 1.83676e-05 0
0.000450344 0.00042556 0
0.000643229 1.00157e-05 0
-0.000220626 6.56779e-05 0
-0.000197246 0.000196921 0
-4.44273e-06 7.45358e-06 0
-5.37711e-06 -9.69397e-06 0
-3.66797e-06 3.6706e-06 0
    <DataArray type="Float64" Name="norm"/>
1.09037e-05
0.000258944
9.83465e-06
0.000661697
4.57567e-05
0.000406311
2.59575e-05
0.000619605
0.000643307
0.000230194
0.000278718
8.6772e-06
1.10854e-05
5.18915e-06
   </PointData>
   <CellData>
   </CellData>
   <Points>
    <DataArray type="Float64" Name="Points" NumberOfComponents="3"/>
4.08408 3.47334 0.7
4.22568 3.61482 0.7
4.36711 3.7563 0.7
4.14858 2.46079 0.7
4.29 2.31927 0.7
3.90042 3.05684 0.7
4.40995 2.62141 0.7
4.27075 2.76449 0.7
4.20072 2.93664 0.7
4.22763 3.13196 0.7
4.32663 3.29824 0.7
4.28814 2.88815 0.7
4.28659 2.98783 0.7
4.46787 3.43954 0.7
   </Points>
   <Cells>
    <DataArray type="Int64" Name="connectivity" format="ascii">
0
1
2
3
4
5
6
7
8
9
10
11
12
13
    </DataArray>
    <DataArray type="Int64" Name="offsets" format="ascii">
1
2
3
4
5
6
7
8
9
10
11
12
13
14
    </DataArray>
    <DataArray type="Int64" Name="types" format="ascii">
1
1
1
1
1
1
1
1
1
1
1
1
1
1
    </DataArray>
   </Cells>
  </Piece>
 </UnstructuredGrid>
</VTKFile>