<?xml version="1.0"?>
<VTKFile type="UnstructuredGrid" version="0.1" byte_order="LittleEndian" compressor="vtkZLibDataCompressor">
 <UnstructuredGrid GhostLevel="0">
  <Piece NumberOfPoints="16" NumberOfCells="16">
   <PointData>
    <DataArray type="Float64" Name="Elongation" NumberOfComponents="3"/>
3.01759e-05 1.98869e-05 0
0.00020367 0.000133738 0
-6.3243e-06 -4.14975e-06 0
2.68923e-05 -2.25687e-05 0
1.78877e-05 -1.49855e-05 0
-5.46409e-07 4.57397e-07 0
2.27676e-06 2.57126e-05 0
-6.11486e-06 -6.75281e-05 0
-4.49354e-07 -4.49386e-07 0
1.70429e-05 1.70595e-05 0
-9.99428e-07 -7.93143e-10 0
-6.82671e-05 1.85881e-05 0
-0.000137819 0.000137688 0
-3.76693e-05 6.52753e-05 0
-2.88308e-05 -5.01327e-05 0
-3.86781e-06 3.86997e-06 0
    <DataArray type="Float64" Name="norm"/>
3.61397e-05
0.000243654
7.5642e-06
3.51075e-05
2.33353e-05
7.12584e-07
2.58132e-05
6.78044e-05
6.35505e-07
2.4114e-05
9.99428e-07
7.07525e-05
0.000194813
7.53647e-05
5.78317e-05
5.47144e-06
   </PointData>
   <CellData>
   </CellData>
   <Points>
    <DataArray type="Float64" Name="Points" NumberOfComponents="3"/>
4.08641 3.47489 0.7
4.22798 3.61639 0.7
4.36941 3.75786 0.7
4.00648 2.60275 0.7
4.14793 2.46123 0.7
4.28938 2.31978 0.7
3.90041 2.85882 0.7
3.90049 3.05901 0.7
4.41122 2.62046 0.7
4.26986 2.76175 0.7
4.1991 2.93217 0.7
4.22523 3.12823 0.7
4.322 3.29512 0.7
4.28576 2.88233 0.7
4.28568 2.98214 0.7
4.46326 3.43641 0.7
   </Points>
   <Cells>
    <DataArray type="Int64" Name="connectivity" format="ascii">
0
1
2
3
4
5
6
7
8
9
10
11
12
13
14
15
    </DataArray>
    <DataArray type="Int64" Name="offsets" format="ascii">
1
2
3
4
5
6
7
8
9
10
11
12
13
14
15
16
    </DataArray>
    <DataArray type="Int64" Name="types" format="ascii">
1
1
1
1
1
1
1
1
1
1
1
1
1
1
1
1
    </DataArray>
   </Cells>
  </Piece>
 </UnstructuredGrid>
</VTKFile>