<?xml version="1.0"?>
<VTKFile type="UnstructuredGrid" version="0.1" byte_order="LittleEndian" compressor="vtkZLibDataCompressor">
 <UnstructuredGrid GhostLevel="0">
  <Piece NumberOfPoints="8" NumberOfCells="8">
   <PointData>
    <DataArray type="Float64" Name="radius"/>
0.1
0.1
0.1
0.1
0.1
0.1
0.1
0.1
    <DataArray type="Float64" Name="mass"/>
10.472
10.472
10.472
10.472
10.472
10.472
10.472
10.472
    <DataArray type="Float64" Name="particleIndex"/>
0
1
2
3
4
5
6
7
    <DataArray type="Float64" Name="clusterIndex"/>
0
1
2
3
4
5
6
7
    <DataArray type="Float64" Name="v" NumberOfComponents="3"/>
0.0155063 0.0103031 0
-0.0033285 0.0177358 0
-0.00414327 0.00857416 0
-0.00154562 0.00446406 0
0.00442362 0.00540519 0
0.00944899 0.00704212 0
-0.00416171 -0.000150333 0
0.0133285 0.00791206 0
    <DataArray type="Float64" Name="w" NumberOfComponents="3"/>
0 0 -0.00986902
0 0 0.0199254
0 0 0.036897
0 0 -0.0193948
0 0 0.0132827
0 0 -0.0255654
0 0 0.0742732
0 0 0.00366138
    <DataArray type="Float64" Name="FParticle" NumberOfComponents="3"/>
181.762 -127.894 0
130.508 -95.1394 0
-239.518 -273.366 0
-304.36 -1.64492 0
27.6584 183.012 0
43.3718 174.017 0
101.346 55.2344 0
59.2323 85.7815 0
    <DataArray type="Float64" Name="FGrav" NumberOfComponents="3"/>
-102.73 0 0
-102.73 0 0
-102.73 0 0
-102.73 0 0
-102.73 0 0
-102.73 0 0
-102.73 0 0
-102.73 0 0
    <DataArray type="Float64" Name="MParticle" NumberOfComponents="3"/>
0 0 -3.78827
0 0 -10.0921
0 0 -21.4479
0 0 -13.1994
0 0 -10.174
0 0 -12.9861
0 0 -4.91239
0 0 -1.87789
    <DataArray type="Float64" Name="FWall" NumberOfComponents="3"/>
0 0 0
119.265 64.2421 0
376.608 307.993 0
356.924 4.69026 0
50.4287 -184.914 0
36.6991 -180.283 0
0 0 0
19.9537 -98.3032 0
    <DataArray type="Float64" Name="MWall" NumberOfComponents="3"/>
0 0 0
0 0 5.03109
0 0 -11.0401
0 0 -3.68522
0 0 5.96554
0 0 6.83285
0 0 0
0 0 3.72534
    <DataArray type="Float64" Name="FHydro" NumberOfComponents="3"/>
0 0 0
0 0 0
0 0 0
0 0 0
0 0 0
0 0 0
0 0 0
0 0 0
    <DataArray type="Float64" Name="FSpringP" NumberOfComponents="3"/>
26.7617 26.8124 0
17.8059 17.7695 0
92.0537 -70.1614 0
-140.568 -14.5314 0
87.5832 -80.9798 0
-65.2909 65.2457 0
-5.06754 42.5656 0
-13.278 13.2795 0
    <DataArray type="Float64" Name="FSpringW" NumberOfComponents="3"/>
0 0 0
38.6027 -32.2648 0
-19.9101 97.7113 0
3.32267 36.7021 0
-49.8097 -32.8293 0
-57.1045 -37.5215 0
0 0 0
-31.1454 -20.4397 0
    <DataArray type="Float64" Name="MRolling" NumberOfComponents="3"/>
0 0 1.09498
0 0 -1.71789
0 0 -14.5089
0 0 -6.99529
0 0 -2.61699
0 0 5.21056
0 0 0.126308
0 0 -2.37537
   </PointData>
   <CellData>
   </CellData>
   <Points>
    <DataArray type="Float64" Name="Points" NumberOfComponents="3"/>
4.48167 2.55017 0.7
4.34033 2.69125 0.7
4.19914 2.8324 0.7
4.19901 3.03198 0.7
4.25144 3.2245 0.7
4.39262 3.36577 0.7
4.37234 2.93229 0.7
4.53397 3.5071 0.7
   </Points>
   <Cells>
    <DataArray type="Int64" Name="connectivity" format="ascii">
0
1
2
3
4
5
6
7
    </DataArray>
    <DataArray type="Int64" Name="offsets" format="ascii">
1
2
3
4
5
6
7
8
    </DataArray>
    <DataArray type="Int64" Name="types" format="ascii">
1
1
1
1
1
1
1
1
    </DataArray>
   </Cells>
  </Piece>
 </UnstructuredGrid>
</VTKFile>