<?xml version="1.0"?>
<VTKFile type="UnstructuredGrid" version="0.1" byte_order="LittleEndian" compressor="vtkZLibDataCompressor">
 <UnstructuredGrid GhostLevel="0">
  <Piece NumberOfPoints="8" NumberOfCells="8">
   <PointData>
    <DataArray type="Float64" Name="radius"/>
0.1
0.1
0.1
0.1
0.1
0.1
0.1
0.1
    <DataArray type="Float64" Name="mass"/>
10.472
10.472
10.472
10.472
10.472
10.472
10.472
10.472
    <DataArray type="Float64" Name="particleIndex"/>
0
1
2
3
4
5
6
7
    <DataArray type="Float64" Name="clusterIndex"/>
0
1
2
3
4
5
6
7
    <DataArray type="Float64" Name="v" NumberOfComponents="3"/>
-0.00165107 0.00132997 0
0.0006313 0.00355359 0
2.35996e-06 0.00189766 0
-0.00049973 0.000653306 0
0.0170104 -0.00849661 0
0.00162459 0.00159181 0
-8.33703e-05 0.00145444 0
0.000125309 0.000632296 0
    <DataArray type="Float64" Name="w" NumberOfComponents="3"/>
0 0 0.0213265
0 0 -0.052403
0 0 0.10481
0 0 -0.15178
0 0 -0.0342608
0 0 0.192214
0 0 0.0847324
0 0 -0.0342062
    <DataArray type="Float64" Name="FParticle" NumberOfComponents="3"/>
43.6329 -79.7819 0
146.817 5.27901 0
-2039.2 -554.047 0
728.744 -1276.11 0
-63.3147 100.659 0
1455.52 419.713 0
89.5467 16.4537 0
-361.751 1367.83 0
    <DataArray type="Float64" Name="FGrav" NumberOfComponents="3"/>
-102.73 0 0
-102.73 0 0
-102.73 0 0
-102.73 0 0
-102.73 0 0
-102.73 0 0
-102.73 0 0
-102.73 0 0
    <DataArray type="Float64" Name="MParticle" NumberOfComponents="3"/>
0 0 2.40793
0 0 -5.80802
0 0 167.669
0 0 214.142
0 0 -5.3324
0 0 -159.497
0 0 -0.37913
0 0 -122.172
    <DataArray type="Float64" Name="FWall" NumberOfComponents="3"/>
61.7254 84.8526 0
0 0 0
1200.11 1076.2 0
497.977 2642.89 0
0 0 0
-1866.37 -1729.8 0
0 0 0
-373.239 -1191.42 0
    <DataArray type="Float64" Name="MWall" NumberOfComponents="3"/>
0 0 -0.526008
0 0 0
0 0 -115.095
0 0 -267.022
0 0 0
0 0 252.42
0 0 0
0 0 99.3525
    <DataArray type="Float64" Name="FHydro" NumberOfComponents="3"/>
0 0 0
0 0 0
0 0 0
0 0 0
0 0 0
0 0 0
0 0 0
0 0 0
    <DataArray type="Float64" Name="FSpringP" NumberOfComponents="3"/>
-17.3126 -16.7358 0
75.4615 74.7778 0
-1833.7 -83.255 0
1506.3 131.649 0
579.084 -358.185 0
586.848 -613.94 0
-31.2439 3.3499 0
-865.436 862.339 0
    <DataArray type="Float64" Name="FSpringW" NumberOfComponents="3"/>
-4.09321 3.30365 0
0 0 0
73.8169 1148.58 0
178.08 2664.27 0
0 0 0
-2053.84 -1467.42 0
0 0 0
-810.518 -574.588 0
    <DataArray type="Float64" Name="MRolling" NumberOfComponents="3"/>
0 0 -2.53437
0 0 1.37481
0 0 -25.9038
0 0 -13.9563
0 0 20.9464
0 0 -20.328
0 0 -0.696681
0 0 18.69
   </PointData>
   <CellData>
   </CellData>
   <Points>
    <DataArray type="Float64" Name="Points" NumberOfComponents="3"/>
4.47913 2.55204 0.7
4.34019 2.69577 0.7
4.19901 2.83721 0.7
4.19941 3.03667 0.7
4.26731 3.22251 0.7
4.39903 3.37023 0.7
4.37249 2.93658 0.7
4.53971 3.51142 0.7
   </Points>
   <Cells>
    <DataArray type="Int64" Name="connectivity" format="ascii">
0
1
2
3
4
5
6
7
    </DataArray>
    <DataArray type="Int64" Name="offsets" format="ascii">
1
2
3
4
5
6
7
8
    </DataArray>
    <DataArray type="Int64" Name="types" format="ascii">
1
1
1
1
1
1
1
1
    </DataArray>
   </Cells>
  </Piece>
 </UnstructuredGrid>
</VTKFile>