<?xml version="1.0"?>
<VTKFile type="UnstructuredGrid" version="0.1" byte_order="LittleEndian" compressor="vtkZLibDataCompressor">
 <UnstructuredGrid GhostLevel="0">
  <Piece NumberOfPoints="8" NumberOfCells="8">
   <PointData>
    <DataArray type="Float64" Name="radius"/>
0.1
0.1
0.1
0.1
0.1
0.1
0.1
0.1
    <DataArray type="Float64" Name="mass"/>
10.472
10.472
10.472
10.472
10.472
10.472
10.472
10.472
    <DataArray type="Float64" Name="particleIndex"/>
0
1
2
3
4
5
6
7
    <DataArray type="Float64" Name="clusterIndex"/>
0
1
2
3
4
5
6
7
    <DataArray type="Float64" Name="v" NumberOfComponents="3"/>
0.00124311 -0.00263761 0
0.00452574 -0.000497698 0
0.00558401 0.00500069 0
0.000130462 0.00246869 0
-0.000484821 0.00142057 0
-0.000145763 4.03447e-05 0
0.0637558 -0.0779307 0
-0.000418099 -0.00031299 0
    <DataArray type="Float64" Name="w" NumberOfComponents="3"/>
0 0 -0.00209053
0 0 -0.050271
0 0 0.0244775
0 0 0.00803819
0 0 0.00982878
0 0 -0.0137237
0 0 -1.0914
0 0 0.00410295
    <DataArray type="Float64" Name="FParticle" NumberOfComponents="3"/>
61.1191 -109.449 0
107.988 -18.5255 0
-207.052 7.00869 0
-65.0795 -17.9789 0
-30.7383 98.7288 0
50.6805 -14.2997 0
32.924 4.35546 0
50.1581 50.1606 0
    <DataArray type="Float64" Name="FGrav" NumberOfComponents="3"/>
-102.73 0 0
-102.73 0 0
-102.73 0 0
-102.73 0 0
-102.73 0 0
-102.73 0 0
-102.73 0 0
-102.73 0 0
    <DataArray type="Float64" Name="MParticle" NumberOfComponents="3"/>
0 0 3.41462
0 0 0.224858
0 0 -1.45903
0 0 3.42134
0 0 7.51802
0 0 4.59399
0 0 1.23342
0 0 0
    <DataArray type="Float64" Name="FWall" NumberOfComponents="3"/>
35.2251 114.397 0
11.329 13.8605 0
295.702 -2.08798 0
150.029 16.2146 0
75.8203 -108.63 0
37.9547 -54.4315 0
0 0 0
28.806 -41.3409 0
    <DataArray type="Float64" Name="MWall" NumberOfComponents="3"/>
0 0 -4.50561
0 0 0
0 0 -1.88499
0 0 -2.68686
0 0 0
0 0 0
0 0 0
0 0 0
    <DataArray type="Float64" Name="FHydro" NumberOfComponents="3"/>
0 0 0
0 0 0
0 0 0
0 0 0
0 0 0
0 0 0
0 0 0
0 0 0
    <DataArray type="Float64" Name="FSpringP" NumberOfComponents="3"/>
-24.1507 -24.1393 0
47.006 46.39 0
-33.8715 -11.4963 0
-23.0772 8.25516 0
-4.43203 24.2293 0
32.4823 -32.4865 0
6.04313 -10.7524 0
0 0 0
    <DataArray type="Float64" Name="FSpringW" NumberOfComponents="3"/>
-34.9029 28.4929 0
0 0 0
1.33437 18.8026 0
1.9154 26.8002 0
0 0 0
0 0 0
0 0 0
0 0 0
    <DataArray type="Float64" Name="MRolling" NumberOfComponents="3"/>
0 0 1.61479
0 0 2.00942
0 0 -7.6877
0 0 -3.1313
0 0 -2.38825
0 0 2.16516
0 0 0.154178
0 0 -1.36242
   </PointData>
   <CellData>
   </CellData>
   <Points>
    <DataArray type="Float64" Name="Points" NumberOfComponents="3"/>
4.48 2.55134 0.7
4.33869 2.69271 0.7
4.19934 2.83585 0.7
4.19942 3.03575 0.7
4.25585 3.22747 0.7
4.39722 3.36881 0.7
4.37362 2.93381 0.7
4.53859 3.51019 0.7
   </Points>
   <Cells>
    <DataArray type="Int64" Name="connectivity" format="ascii">
0
1
2
3
4
5
6
7
    </DataArray>
    <DataArray type="Int64" Name="offsets" format="ascii">
1
2
3
4
5
6
7
8
    </DataArray>
    <DataArray type="Int64" Name="types" format="ascii">
1
1
1
1
1
1
1
1
    </DataArray>
   </Cells>
  </Piece>
 </UnstructuredGrid>
</VTKFile>