<?xml version="1.0"?>
<VTKFile type="UnstructuredGrid" version="0.1" byte_order="LittleEndian" compressor="vtkZLibDataCompressor">
 <UnstructuredGrid GhostLevel="0">
  <Piece NumberOfPoints="8" NumberOfCells="8">
   <PointData>
    <DataArray type="Float64" Name="radius"/>
0.1
0.1
0.1
0.1
0.1
0.1
0.1
0.1
    <DataArray type="Float64" Name="mass"/>
10.472
10.472
10.472
10.472
10.472
10.472
10.472
10.472
    <DataArray type="Float64" Name="particleIndex"/>
0
1
2
3
4
5
6
7
    <DataArray type="Float64" Name="clusterIndex"/>
0
1
2
3
4
5
6
7
    <DataArray type="Float64" Name="v" NumberOfComponents="3"/>
0.0080261 -0.00859504 0
0.00766074 -0.00849428 0
0.0128646 -0.00427612 0
-0.000949405 -0.00635789 0
0.00399022 -0.00791686 0
-0.00292955 -0.00170714 0
0.00407351 0.00620479 0
-0.00279117 -0.0019344 0
    <DataArray type="Float64" Name="w" NumberOfComponents="3"/>
0 0 -0.14786
0 0 -0.200401
0 0 0.221547
0 0 -0.0625591
0 0 0.0154694
0 0 0.0680973
0 0 0.0880929
0 0 -0.0412825
    <DataArray type="Float64" Name="FParticle" NumberOfComponents="3"/>
60.8803 -141.792 0
460.434 -449.812 0
-430.607 -290.998 0
-675.251 129.395 0
88.6277 31.1074 0
515.898 199.902 0
86.4022 4.57822 0
-106.384 517.619 0
    <DataArray type="Float64" Name="FGrav" NumberOfComponents="3"/>
-102.73 0 0
-102.73 0 0
-102.73 0 0
-102.73 0 0
-102.73 0 0
-102.73 0 0
-102.73 0 0
-102.73 0 0
    <DataArray type="Float64" Name="MParticle" NumberOfComponents="3"/>
0 0 5.73091
0 0 5.73091
0 0 -2.38605
0 0 24.579
0 0 8.75828
0 0 -57.1532
0 0 0.386529
0 0 -44.1051
    <DataArray type="Float64" Name="FWall" NumberOfComponents="3"/>
-27.4129 225.153 0
294.041 274.209 0
0 0 0
1042.29 -79.6938 0
0 0 0
-575.457 -622.049 0
0 0 0
-64.4919 -424.312 0
    <DataArray type="Float64" Name="MWall" NumberOfComponents="3"/>
0 0 -18.325
0 0 0
0 0 0
0 0 -7.46698
0 0 0
0 0 81.7859
0 0 0
0 0 27.935
    <DataArray type="Float64" Name="FHydro" NumberOfComponents="3"/>
0 0 0
0 0 0
0 0 0
0 0 0
0 0 0
0 0 0
0 0 0
0 0 0
    <DataArray type="Float64" Name="FSpringP" NumberOfComponents="3"/>
-40.4966 -40.5508 0
40.4966 40.5508 0
14.7949 -18.7199 0
-195.294 98.9798 0
307.108 -154.933 0
210.383 -229.907 0
-24.9224 -7.08999 0
-312.069 311.671 0
    <DataArray type="Float64" Name="FSpringW" NumberOfComponents="3"/>
-125.089 133.916 0
0 0 0
0 0 0
10.9964 73.8557 0
0 0 0
-693.178 -434.047 0
0 0 0
-236.99 -147.892 0
    <DataArray type="Float64" Name="MRolling" NumberOfComponents="3"/>
0 0 1.95683
0 0 12.7001
0 0 -8.42061
0 0 29.7415
0 0 -8.44082
0 0 7.05995
0 0 -0.0483161
0 0 7.97189
   </PointData>
   <CellData>
   </CellData>
   <Points>
    <DataArray type="Float64" Name="Points" NumberOfComponents="3"/>
4.49966 2.53292 0.7
4.35826 2.67414 0.7
4.22654 2.82361 0.7
4.19731 3.02062 0.7
4.26412 3.2082 0.7
4.38893 3.36342 0.7
4.38342 2.94759 0.7
4.53006 3.50473 0.7
   </Points>
   <Cells>
    <DataArray type="Int64" Name="connectivity" format="ascii">
0
1
2
3
4
5
6
7
    </DataArray>
    <DataArray type="Int64" Name="offsets" format="ascii">
1
2
3
4
5
6
7
8
    </DataArray>
    <DataArray type="Int64" Name="types" format="ascii">
1
1
1
1
1
1
1
1
    </DataArray>
   </Cells>
  </Piece>
 </UnstructuredGrid>
</VTKFile>