<?xml version="1.0"?>
<VTKFile type="UnstructuredGrid" version="0.1" byte_order="LittleEndian" compressor="vtkZLibDataCompressor">
 <UnstructuredGrid GhostLevel="0">
  <Piece NumberOfPoints="8" NumberOfCells="8">
   <PointData>
    <DataArray type="Float64" Name="radius"/>
0.1
0.1
0.1
0.1
0.1
0.1
0.1
0.1
    <DataArray type="Float64" Name="mass"/>
10.472
10.472
10.472
10.472
10.472
10.472
10.472
10.472
    <DataArray type="Float64" Name="particleIndex"/>
0
1
2
3
4
5
6
7
    <DataArray type="Float64" Name="clusterIndex"/>
0
1
2
3
4
5
6
7
    <DataArray type="Float64" Name="v" NumberOfComponents="3"/>
0.0091833 -0.010742 0
0.00873202 -0.0103898 0
0.0145103 -0.00455847 0
-0.000774816 -0.00712163 0
0.00348292 -0.00768053 0
-0.00270088 -0.00175511 0
0.00400499 0.00695179 0
-0.00239693 -0.00158992 0
    <DataArray type="Float64" Name="w" NumberOfComponents="3"/>
0 0 -0.175193
0 0 -0.21818
0 0 0.23854
0 0 -0.0655517
0 0 0.0356759
0 0 0.0489355
0 0 0.0830799
0 0 -0.0233383
    <DataArray type="Float64" Name="FParticle" NumberOfComponents="3"/>
56.4143 -131.455 0
346.834 -355.313 0
7.3578 -154.193 0
-776.659 65.3482 0
29.569 39.2261 0
182.228 243.274 0
127.568 105.687 0
26.6876 187.425 0
    <DataArray type="Float64" Name="FGrav" NumberOfComponents="3"/>
-102.73 0 0
-102.73 0 0
-102.73 0 0
-102.73 0 0
-102.73 0 0
-102.73 0 0
-102.73 0 0
-102.73 0 0
    <DataArray type="Float64" Name="MParticle" NumberOfComponents="3"/>
0 0 5.3127
0 0 5.3127
0 0 -30.4402
0 0 -35.2747
0 0 -3.35444
0 0 -20.5461
0 0 -10.6591
0 0 -11.3671
    <DataArray type="Float64" Name="FWall" NumberOfComponents="3"/>
-13.5911 208.617 0
232.619 197.202 0
0 0 0
816.751 -117.936 0
0 0 0
-180.494 -400.046 0
0 0 0
50.0475 -136.09 0
    <DataArray type="Float64" Name="MWall" NumberOfComponents="3"/>
0 0 -16.7823
0 0 0
0 0 0
0 0 -2.40579
0 0 0
0 0 36.1882
0 0 0
0 0 2.77385
    <DataArray type="Float64" Name="FHydro" NumberOfComponents="3"/>
0 0 0
0 0 0
0 0 0
0 0 0
0 0 0
0 0 0
0 0 0
0 0 0
    <DataArray type="Float64" Name="FSpringP" NumberOfComponents="3"/>
-37.548 -37.5849 0
37.548 37.5849 0
297.966 62.2615 0
-385.586 -143.131 0
127.908 -75.6094 0
6.99797 -25.2313 0
33.0849 101.326 0
-80.371 80.3838 0
    <DataArray type="Float64" Name="FSpringW" NumberOfComponents="3"/>
-108.621 127.929 0
0 0 0
0 0 0
4.13092 23.7006 0
0 0 0
-309.345 -187.788 0
0 0 0
-23.7216 -14.3775 0
    <DataArray type="Float64" Name="MRolling" NumberOfComponents="3"/>
0 0 1.8292
0 0 9.92378
0 0 -6.8146
0 0 -15.3109
0 0 0.269687
0 0 8.07213
0 0 -0.151194
0 0 2.08949
   </PointData>
   <CellData>
   </CellData>
   <Points>
    <DataArray type="Float64" Name="Points" NumberOfComponents="3"/>
4.50596 2.52585 0.7
4.36458 2.6671 0.7
4.23739 2.82063 0.7
4.19662 3.01573 0.7
4.26668 3.20249 0.7
4.38656 3.36198 0.7
4.38668 2.95367 0.7
4.52789 3.50329 0.7
   </Points>
   <Cells>
    <DataArray type="Int64" Name="connectivity" format="ascii">
0
1
2
3
4
5
6
7
    </DataArray>
    <DataArray type="Int64" Name="offsets" format="ascii">
1
2
3
4
5
6
7
8
    </DataArray>
    <DataArray type="Int64" Name="types" format="ascii">
1
1
1
1
1
1
1
1
    </DataArray>
   </Cells>
  </Piece>
 </UnstructuredGrid>
</VTKFile>