<?xml version="1.0"?>
<VTKFile type="UnstructuredGrid" version="0.1" byte_order="LittleEndian" compressor="vtkZLibDataCompressor">
 <UnstructuredGrid GhostLevel="0">
  <Piece NumberOfPoints="8" NumberOfCells="8">
   <PointData>
    <DataArray type="Float64" Name="radius"/>
0.1
0.1
0.1
0.1
0.1
0.1
0.1
0.1
    <DataArray type="Float64" Name="mass"/>
10.472
10.472
10.472
10.472
10.472
10.472
10.472
10.472
    <DataArray type="Float64" Name="particleIndex"/>
0
1
2
3
4
5
6
7
    <DataArray type="Float64" Name="clusterIndex"/>
0
1
2
3
4
5
6
7
    <DataArray type="Float64" Name="v" NumberOfComponents="3"/>
0.0107439 -0.0121111 0
0.0104842 -0.0118136 0
0.0173465 -0.00502336 0
-0.000974695 -0.00806525 0
0.00327336 -0.00865506 0
-0.00361495 -0.00210815 0
0.00539796 0.00924658 0
-0.00313357 -0.00225063 0
    <DataArray type="Float64" Name="w" NumberOfComponents="3"/>
0 0 -0.19343
0 0 -0.252887
0 0 0.278868
0 0 -0.0746024
0 0 0.042646
0 0 0.0468124
0 0 0.0904781
0 0 -0.0369134
    <DataArray type="Float64" Name="FParticle" NumberOfComponents="3"/>
58.1683 -135.515 0
392.473 -391.61 0
-20.9329 -179.999 0
-889.344 8.18805 0
28.2203 41.5517 0
340.289 201.532 0
138.941 106.641 0
-47.8151 349.212 0
    <DataArray type="Float64" Name="FGrav" NumberOfComponents="3"/>
-102.73 0 0
-102.73 0 0
-102.73 0 0
-102.73 0 0
-102.73 0 0
-102.73 0 0
-102.73 0 0
-102.73 0 0
    <DataArray type="Float64" Name="MParticle" NumberOfComponents="3"/>
0 0 5.47695
0 0 5.47695
0 0 -33.6246
0 0 -34.748
0 0 -0.874352
0 0 -38.6378
0 0 -10.82
0 0 -28.067
    <DataArray type="Float64" Name="FWall" NumberOfComponents="3"/>
-19.1868 215.188 0
257.609 227.719 0
0 0 0
920.754 -65.466 0
0 0 0
-361.943 -474.325 0
0 0 0
-17.7336 -285.294 0
    <DataArray type="Float64" Name="MWall" NumberOfComponents="3"/>
0 0 -17.3833
0 0 0
0 0 0
0 0 -8.39987
0 0 0
0 0 55.6851
0 0 0
0 0 16.4376
    <DataArray type="Float64" Name="FHydro" NumberOfComponents="3"/>
0 0 0
0 0 0
0 0 0
0 0 0
0 0 0
0 0 0
0 0 0
0 0 0
    <DataArray type="Float64" Name="FSpringP" NumberOfComponents="3"/>
-38.7061 -38.7497 0
38.7061 38.7497 0
330.891 59.7659 0
-458.284 -128.26 0
174.632 -98.0996 0
114.924 -133.71 0
36.3656 101.905 0
-198.529 198.398 0
    <DataArray type="Float64" Name="FSpringW" NumberOfComponents="3"/>
-115.233 130.151 0
0 0 0
0 0 0
13.5571 82.8975 0
0 0 0
-474.238 -291.86 0
0 0 0
-140.084 -86.0005 0
    <DataArray type="Float64" Name="MRolling" NumberOfComponents="3"/>
0 0 1.88102
0 0 11.0287
0 0 -7.44172
0 0 -10.9418
0 0 -6.40544
0 0 6.29176
0 0 -0.136338
0 0 5.74313
   </PointData>
   <CellData>
   </CellData>
   <Points>
    <DataArray type="Float64" Name="Points" NumberOfComponents="3"/>
4.50325 2.52898 0.7
4.36185 2.67022 0.7
4.23234 2.82171 0.7
4.19692 3.0178 0.7
4.26561 3.20492 0.7
4.38761 3.3626 0.7
4.38522 2.9506 0.7
4.52884 3.50392 0.7
   </Points>
   <Cells>
    <DataArray type="Int64" Name="connectivity" format="ascii">
0
1
2
3
4
5
6
7
    </DataArray>
    <DataArray type="Int64" Name="offsets" format="ascii">
1
2
3
4
5
6
7
8
    </DataArray>
    <DataArray type="Int64" Name="types" format="ascii">
1
1
1
1
1
1
1
1
    </DataArray>
   </Cells>
  </Piece>
 </UnstructuredGrid>
</VTKFile>