<?xml version="1.0"?>
<VTKFile type="UnstructuredGrid" version="0.1" byte_order="LittleEndian" compressor="vtkZLibDataCompressor">
 <UnstructuredGrid GhostLevel="0">
  <Piece NumberOfPoints="8" NumberOfCells="8">
   <PointData>
    <DataArray type="Float64" Name="radius"/>
0.1
0.1
0.1
0.1
0.1
0.1
0.1
0.1
    <DataArray type="Float64" Name="mass"/>
10.472
10.472
10.472
10.472
10.472
10.472
10.472
10.472
    <DataArray type="Float64" Name="particleIndex"/>
0
1
2
3
4
5
6
7
    <DataArray type="Float64" Name="clusterIndex"/>
0
1
2
3
4
5
6
7
    <DataArray type="Float64" Name="v" NumberOfComponents="3"/>
0.000988784 -0.000848167 0
0.00111675 -0.000891621 0
0.00391657 0.00139782 0
8.20902e-05 0.000882339 0
0.000635263 0.000144899 0
9.22914e-06 0.000592422 0
0.00224455 0.00483485 0
0.000765831 0.000366515 0
    <DataArray type="Float64" Name="w" NumberOfComponents="3"/>
0 0 -0.0126014
0 0 0.0156857
0 0 -0.0076143
0 0 -0.0379785
0 0 0.0142546
0 0 -0.000318363
0 0 0.046793
0 0 -0.00355981
    <DataArray type="Float64" Name="FParticle" NumberOfComponents="3"/>
89.4903 12.2854 0
-179.383 -556.146 0
504.267 153.928 0
-730.213 187.247 0
125.653 41.3615 0
20.6425 163.849 0
94.2102 -2.81655 0
75.334 0.292091 0
    <DataArray type="Float64" Name="FGrav" NumberOfComponents="3"/>
-102.73 0 0
-102.73 0 0
-102.73 0 0
-102.73 0 0
-102.73 0 0
-102.73 0 0
-102.73 0 0
-102.73 0 0
    <DataArray type="Float64" Name="MParticle" NumberOfComponents="3"/>
0 0 -7.19236
0 0 37.0682
0 0 -1.46507
0 0 -30.214
0 0 10.644
0 0 0.492204
0 0 -0.0548795
0 0 5.30493
    <DataArray type="Float64" Name="FWall" NumberOfComponents="3"/>
64.1975 -6.96262 0
-55.0271 492.574 0
0 0 0
504.114 -323.296 0
61.182 -45.9402 0
69.986 -150.537 0
0 0 0
24.611 -35.4616 0
    <DataArray type="Float64" Name="MWall" NumberOfComponents="3"/>
0 0 5.40868
0 0 -35.4644
0 0 0
0 0 28.6284
0 0 -2.39819
0 0 2.83713
0 0 0
0 0 0
    <DataArray type="Float64" Name="FHydro" NumberOfComponents="3"/>
0 0 0
0 0 0
0 0 0
0 0 0
0 0 0
0 0 0
0 0 0
0 0 0
    <DataArray type="Float64" Name="FSpringP" NumberOfComponents="3"/>
50.8179 50.8974 0
-369.066 -358.497 0
775.228 308.842 0
-604.979 41.937 0
182.319 -77.6716 0
-71.5466 71.5387 0
-0.275737 0.474495 0
37.5021 -37.5209 0
    <DataArray type="Float64" Name="FSpringW" NumberOfComponents="3"/>
41.8528 -34.2597 0
-274.389 224.684 0
0 0 0
-20.5458 -285.545 0
19.6854 13.6974 0
-23.3043 -16.1815 0
0 0 0
0 0 0
    <DataArray type="Float64" Name="MRolling" NumberOfComponents="3"/>
0 0 0.978767
0 0 8.29455
0 0 -3.21667
0 0 13.9379
0 0 1.07418
0 0 -4.45854
0 0 -0.545156
0 0 1.13075
   </PointData>
   <CellData>
   </CellData>
   <Points>
    <DataArray type="Float64" Name="Points" NumberOfComponents="3"/>
4.48023 2.5512 0.7
4.33873 2.69247 0.7
4.19997 2.83604 0.7
4.19922 3.03567 0.7
4.25563 3.22728 0.7
4.39687 3.36863 0.7
4.37284 2.93649 0.7
4.53828 3.50998 0.7
   </Points>
   <Cells>
    <DataArray type="Int64" Name="connectivity" format="ascii">
0
1
2
3
4
5
6
7
    </DataArray>
    <DataArray type="Int64" Name="offsets" format="ascii">
1
2
3
4
5
6
7
8
    </DataArray>
    <DataArray type="Int64" Name="types" format="ascii">
1
1
1
1
1
1
1
1
    </DataArray>
   </Cells>
  </Piece>
 </UnstructuredGrid>
</VTKFile>