<?xml version="1.0"?>
<VTKFile type="UnstructuredGrid" version="0.1" byte_order="LittleEndian" compressor="vtkZLibDataCompressor">
 <UnstructuredGrid GhostLevel="0">
  <Piece NumberOfPoints="8" NumberOfCells="8">
   <PointData>
    <DataArray type="Float64" Name="radius"/>
0.1
0.1
0.1
0.1
0.1
0.1
0.1
0.1
    <DataArray type="Float64" Name="mass"/>
10.472
10.472
10.472
10.472
10.472
10.472
10.472
10.472
    <DataArray type="Float64" Name="particleIndex"/>
0
1
2
3
4
5
6
7
    <DataArray type="Float64" Name="clusterIndex"/>
0
1
2
3
4
5
6
7
    <DataArray type="Float64" Name="v" NumberOfComponents="3"/>
3.6148e-06 -1.97117e-05 0
9.64012e-06 -3.70157e-05 0
-7.88028e-05 -0.000192176 0
-0.000145299 -0.00069692 0
0.0037853 -0.00233242 0
0.00036999 0.000295919 0
8.73181e-05 -0.000283388 0
0.000189903 0.000149887 0
    <DataArray type="Float64" Name="w" NumberOfComponents="3"/>
0 0 0.000545255
0 0 0.00192096
0 0 0.00790551
0 0 -0.000544788
0 0 -0.0351452
0 0 0.0169925
0 0 0.131668
0 0 0.0026485
    <DataArray type="Float64" Name="FParticle" NumberOfComponents="3"/>
66.7992 -43.7291 0
83.6295 -63.9462 0
-106.413 -310.393 0
-389.092 -123.615 0
181.847 -117.132 0
5.14121 497.637 0
98.3409 46.0357 0
59.7471 115.142 0
    <DataArray type="Float64" Name="FGrav" NumberOfComponents="3"/>
-102.73 0 0
-102.73 0 0
-102.73 0 0
-102.73 0 0
-102.73 0 0
-102.73 0 0
-102.73 0 0
-102.73 0 0
    <DataArray type="Float64" Name="MParticle" NumberOfComponents="3"/>
0 0 -1.63099
0 0 -4.64616
0 0 -13.9809
0 0 -0.102753
0 0 -27.9547
0 0 -42.5487
0 0 -4.7664
0 0 -3.92174
    <DataArray type="Float64" Name="FWall" NumberOfComponents="3"/>
43.1943 58.1057 0
34.107 105.212 0
217.878 315.012 0
469.61 136.465 0
0 0 0
-243.084 -512.111 0
0 0 0
44.3245 -93.6749 0
    <DataArray type="Float64" Name="MWall" NumberOfComponents="3"/>
0 0 -0.417561
0 0 -4.14196
0 0 -11.6162
0 0 -17.8206
0 0 0
0 0 48.4223
0 0 0
0 0 1.42945
    <DataArray type="Float64" Name="FHydro" NumberOfComponents="3"/>
0 0 0
0 0 0
0 0 0
0 0 0
0 0 0
0 0 0
0 0 0
0 0 0
    <DataArray type="Float64" Name="FSpringP" NumberOfComponents="3"/>
11.5324 11.5333 0
9.77876 9.79643 0
75.9575 -42.6989 0
-199.187 8.323 0
376.702 -300.731 0
-246.066 244.737 0
-0.996484 41.2982 0
-27.7203 27.7415 0
    <DataArray type="Float64" Name="FSpringW" NumberOfComponents="3"/>
-3.20186 2.68025 0
-31.7505 26.5987 0
-61.1957 86.1647 0
16.05 177.482 0
0 0 0
-404.816 -265.7 0
0 0 0
-11.9542 -7.83767 0
    <DataArray type="Float64" Name="MRolling" NumberOfComponents="3"/>
0 0 -1.05485
0 0 -1.52925
0 0 -10.22
0 0 -9.73265
0 0 0.315862
0 0 8.91373
0 0 -0.573261
0 0 -2.67109
   </PointData>
   <CellData>
   </CellData>
   <Points>
    <DataArray type="Float64" Name="Points" NumberOfComponents="3"/>
4.48191 2.54978 0.7
4.34053 2.69114 0.7
4.19918 2.83237 0.7
4.19896 3.03201 0.7
4.25176 3.22435 0.7
4.3925 3.36577 0.7
4.37231 2.93237 0.7
4.5339 3.50705 0.7
   </Points>
   <Cells>
    <DataArray type="Int64" Name="connectivity" format="ascii">
0
1
2
3
4
5
6
7
    </DataArray>
    <DataArray type="Int64" Name="offsets" format="ascii">
1
2
3
4
5
6
7
8
    </DataArray>
    <DataArray type="Int64" Name="types" format="ascii">
1
1
1
1
1
1
1
1
    </DataArray>
   </Cells>
  </Piece>
 </UnstructuredGrid>
</VTKFile>