<?xml version="1.0"?>
<VTKFile type="UnstructuredGrid" version="0.1" byte_order="LittleEndian" compressor="vtkZLibDataCompressor">
 <UnstructuredGrid GhostLevel="0">
  <Piece NumberOfPoints="8" NumberOfCells="8">
   <PointData>
    <DataArray type="Float64" Name="radius"/>
0.1
0.1
0.1
0.1
0.1
0.1
0.1
0.1
    <DataArray type="Float64" Name="mass"/>
10.472
10.472
10.472
10.472
10.472
10.472
10.472
10.472
    <DataArray type="Float64" Name="particleIndex"/>
0
1
2
3
4
5
6
7
    <DataArray type="Float64" Name="clusterIndex"/>
0
1
2
3
4
5
6
7
    <DataArray type="Float64" Name="v" NumberOfComponents="3"/>
-0.00130785 0.00105192 0
0.000690644 0.00299403 0
-9.89261e-05 0.00143841 0
-0.000390732 0.00026827 0
0.0155874 -0.00777541 0
0.00181591 0.00154321 0
-8.41234e-05 0.000851482 0
0.000484031 0.000922265 0
    <DataArray type="Float64" Name="w" NumberOfComponents="3"/>
0 0 0.0169309
0 0 -0.044055
0 0 0.0932284
0 0 -0.134732
0 0 -0.0294932
0 0 0.173838
0 0 0.0765746
0 0 -0.0354549
    <DataArray type="Float64" Name="FParticle" NumberOfComponents="3"/>
43.8487 -79.6137 0
145.14 10.7405 0
-1740.32 -461.842 0
580.278 -1111.35 0
-58.1572 98.7365 0
1196.35 411.23 0
94.1608 28.3815 0
-261.297 1103.72 0
    <DataArray type="Float64" Name="FGrav" NumberOfComponents="3"/>
-102.73 0 0
-102.73 0 0
-102.73 0 0
-102.73 0 0
-102.73 0 0
-102.73 0 0
-102.73 0 0
-102.73 0 0
    <DataArray type="Float64" Name="MParticle" NumberOfComponents="3"/>
0 0 2.3939
0 0 -6.13259
0 0 138.132
0 0 179.672
0 0 -3.86988
0 0 -128.98
0 0 -1.93932
0 0 -96.4436
    <DataArray type="Float64" Name="FWall" NumberOfComponents="3"/>
61.6726 84.8709 0
0 0 0
1056.29 874.381 0
466.258 2291.23 0
0 0 0
-1551.54 -1511.27 0
0 0 0
-294.961 -962.738 0
    <DataArray type="Float64" Name="MWall" NumberOfComponents="3"/>
0 0 -0.541032
0 0 0
0 0 -94.1304
0 0 -231.739
0 0 0
0 0 214.071
0 0 0
0 0 79.7284
    <DataArray type="Float64" Name="FHydro" NumberOfComponents="3"/>
0 0 0
0 0 0
0 0 0
0 0 0
0 0 0
0 0 0
0 0 0
0 0 0
    <DataArray type="Float64" Name="FSpringP" NumberOfComponents="3"/>
-17.1867 -16.6641 0
77.5873 76.846 0
-1542.78 -84.8862 0
1233.89 103.741 0
511.126 -314.491 0
441.869 -462.463 0
-21.6645 16.8434 0
-682.843 681.074 0
    <DataArray type="Float64" Name="FSpringW" NumberOfComponents="3"/>
-4.20695 3.40193 0
0 0 0
61.2918 939.307 0
155.781 2312.15 0
0 0 0
-1742.87 -1243.01 0
0 0 0
-650.521 -460.959 0
    <DataArray type="Float64" Name="MRolling" NumberOfComponents="3"/>
0 0 -2.53386
0 0 1.34931
0 0 -22.7949
0 0 -12.684
0 0 17.8217
0 0 0.823277
0 0 -0.668176
0 0 -15.2843
   </PointData>
   <CellData>
   </CellData>
   <Points>
    <DataArray type="Float64" Name="Points" NumberOfComponents="3"/>
4.47928 2.55192 0.7
4.34012 2.69545 0.7
4.19907 2.83701 0.7
4.19941 3.03656 0.7
4.26569 3.22332 0.7
4.39888 3.37014 0.7
4.3725 2.93648 0.7
4.53972 3.51134 0.7
   </Points>
   <Cells>
    <DataArray type="Int64" Name="connectivity" format="ascii">
0
1
2
3
4
5
6
7
    </DataArray>
    <DataArray type="Int64" Name="offsets" format="ascii">
1
2
3
4
5
6
7
8
    </DataArray>
    <DataArray type="Int64" Name="types" format="ascii">
1
1
1
1
1
1
1
1
    </DataArray>
   </Cells>
  </Piece>
 </UnstructuredGrid>
</VTKFile>