<?xml version="1.0"?>
<VTKFile type="UnstructuredGrid" version="0.1" byte_order="LittleEndian" compressor="vtkZLibDataCompressor">
 <UnstructuredGrid GhostLevel="0">
  <Piece NumberOfPoints="8" NumberOfCells="8">
   <PointData>
    <DataArray type="Float64" Name="radius"/>
0.1
0.1
0.1
0.1
0.1
0.1
0.1
0.1
    <DataArray type="Float64" Name="mass"/>
10.472
10.472
10.472
10.472
10.472
10.472
10.472
10.472
    <DataArray type="Float64" Name="particleIndex"/>
0
1
2
3
4
5
6
7
    <DataArray type="Float64" Name="clusterIndex"/>
0
1
2
3
4
5
6
7
    <DataArray type="Float64" Name="v" NumberOfComponents="3"/>
0.0772477 -0.0724791 0
0.0778194 -0.0703548 0
0.11686 -0.0228743 0
-0.000434681 -0.0228993 0
0.00586246 -0.0227109 0
-0.0096321 -0.00589781 0
0.0484556 0.0786153 0
-0.00877916 -0.00640002 0
    <DataArray type="Float64" Name="w" NumberOfComponents="3"/>
0 0 -0.00365595
0 0 -1.39427
0 0 1.0185
0 0 -0.164601
0 0 0.111559
0 0 0.104122
0 0 0.593841
0 0 -0.102137
    <DataArray type="Float64" Name="FParticle" NumberOfComponents="3"/>
41.0683 -95.5678 0
539.718 -519.653 0
-568.766 -324.235 0
-810.154 -58.8383 0
114.08 36.7411 0
765.301 211.13 0
104.376 15.7156 0
-185.624 734.708 0
    <DataArray type="Float64" Name="FGrav" NumberOfComponents="3"/>
-102.73 0 0
-102.73 0 0
-102.73 0 0
-102.73 0 0
-102.73 0 0
-102.73 0 0
-102.73 0 0
-102.73 0 0
    <DataArray type="Float64" Name="MParticle" NumberOfComponents="3"/>
0 0 3.86314
0 0 3.86314
0 0 -3.34323
0 0 37.7563
0 0 16.2668
0 0 -83.5674
0 0 -0.385119
0 0 -65.036
    <DataArray type="Float64" Name="FWall" NumberOfComponents="3"/>
46.7123 118.813 0
354.897 376.665 0
0 0 0
1195.54 31.5718 0
0 0 0
-903.59 -840.32 0
0 0 0
-121.238 -602.323 0
    <DataArray type="Float64" Name="MWall" NumberOfComponents="3"/>
0 0 -4.74139
0 0 0
0 0 0
0 0 -17.1449
0 0 0
0 0 121.535
0 0 0
0 0 42.8533
    <DataArray type="Float64" Name="FHydro" NumberOfComponents="3"/>
0 0 0
0 0 0
0 0 0
0 0 0
0 0 0
0 0 0
0 0 0
0 0 0
    <DataArray type="Float64" Name="FSpringP" NumberOfComponents="3"/>
-27.2898 -27.3433 0
27.2898 27.3433 0
18.6982 -27.7145 0
-317.339 136.536 0
469.782 -231.753 0
320.757 -337.518 0
-31.536 1.06429 0
-460.362 459.386 0
    <DataArray type="Float64" Name="FSpringW" NumberOfComponents="3"/>
-34.5269 32.4957 0
0 0 0
0 0 0
20.0906 170.268 0
0 0 0
-1019.7 -661.282 0
0 0 0
-360.031 -232.419 0
    <DataArray type="Float64" Name="MRolling" NumberOfComponents="3"/>
0 0 -2.85359
0 0 15.0636
0 0 -8.98447
0 0 34.1349
0 0 -11.2256
0 0 -0.743799
0 0 0.0481398
0 0 10.7505
   </PointData>
   <CellData>
   </CellData>
   <Points>
    <DataArray type="Float64" Name="Points" NumberOfComponents="3"/>
4.49058 2.54204 0.7
4.34911 2.68324 0.7
4.21241 2.82805 0.7
4.19803 3.02663 0.7
4.26082 3.2153 0.7
4.39161 3.36512 0.7
4.37814 2.93987 0.7
4.53261 3.50643 0.7
   </Points>
   <Cells>
    <DataArray type="Int64" Name="connectivity" format="ascii">
0
1
2
3
4
5
6
7
    </DataArray>
    <DataArray type="Int64" Name="offsets" format="ascii">
1
2
3
4
5
6
7
8
    </DataArray>
    <DataArray type="Int64" Name="types" format="ascii">
1
1
1
1
1
1
1
1
    </DataArray>
   </Cells>
  </Piece>
 </UnstructuredGrid>
</VTKFile>