<?xml version="1.0"?>
<VTKFile type="UnstructuredGrid" version="0.1" byte_order="LittleEndian" compressor="vtkZLibDataCompressor">
 <UnstructuredGrid GhostLevel="0">
  <Piece NumberOfPoints="8" NumberOfCells="8">
   <PointData>
    <DataArray type="Float64" Name="radius"/>
0.1
0.1
0.1
0.1
0.1
0.1
0.1
0.1
    <DataArray type="Float64" Name="mass"/>
10.472
10.472
10.472
10.472
10.472
10.472
10.472
10.472
    <DataArray type="Float64" Name="particleIndex"/>
0
1
2
3
4
5
6
7
    <DataArray type="Float64" Name="clusterIndex"/>
0
1
2
3
4
5
6
7
    <DataArray type="Float64" Name="v" NumberOfComponents="3"/>
0.00134916 -0.000999643 0
0.000557423 -0.00196849 0
0.00271628 -0.00219966 0
-0.000372553 -0.00441442 0
0.00959275 -0.00763202 0
0.00056708 0.000703701 0
0.00198724 -0.00281701 0
-2.91005e-05 0.000581168 0
    <DataArray type="Float64" Name="w" NumberOfComponents="3"/>
0 0 -0.00357484
0 0 -0.0267221
0 0 0.0998999
0 0 -0.0413088
0 0 -0.0549093
0 0 0.142579
0 0 0.106149
0 0 -0.0321587
    <DataArray type="Float64" Name="FParticle" NumberOfComponents="3"/>
76.6046 -76.4837 0
363.095 -363.584 0
-171.075 -651.379 0
-981.872 -98.1578 0
-7.71915 91.2577 0
728.161 449.692 0
105.489 43.3736 0
-112.684 605.281 0
    <DataArray type="Float64" Name="FGrav" NumberOfComponents="3"/>
-102.73 0 0
-102.73 0 0
-102.73 0 0
-102.73 0 0
-102.73 0 0
-102.73 0 0
-102.73 0 0
-102.73 0 0
    <DataArray type="Float64" Name="MParticle" NumberOfComponents="3"/>
0 0 0
0 0 0
0 0 -32.8558
0 0 -8.62148
0 0 -2.79083
0 0 -77.745
0 0 -4.88343
0 0 -50.7562
    <DataArray type="Float64" Name="FWall" NumberOfComponents="3"/>
64.7039 77.1689 0
291.23 346.978 0
234.802 278.006 0
1008.97 167.882 0
0 0 0
-1007.87 -1125.33 0
0 0 0
-120.401 -513.039 0
    <DataArray type="Float64" Name="MWall" NumberOfComponents="3"/>
0 0 0
0 0 0
0 0 0
0 0 -26.3628
0 0 0
0 0 146.113
0 0 0
0 0 38.2549
    <DataArray type="Float64" Name="FHydro" NumberOfComponents="3"/>
0 0 0
0 0 0
0 0 0
0 0 0
0 0 0
0 0 0
0 0 0
0 0 0
    <DataArray type="Float64" Name="FSpringP" NumberOfComponents="3"/>
0 0 0
0 0 0
316.309 -19.6668 0
-547.081 48.8006 0
428.48 -255.643 0
161.718 -174.629 0
-0.406249 42.358 0
-359.02 358.781 0
    <DataArray type="Float64" Name="FSpringW" NumberOfComponents="3"/>
0 0 0
0 0 0
0 0 0
25.2178 262.419 0
0 0 0
-1219.31 -805.102 0
0 0 0
-319.594 -210.246 0
    <DataArray type="Float64" Name="MRolling" NumberOfComponents="3"/>
0 0 1.47286
0 0 12.7117
0 0 -15.9004
0 0 -20.6313
0 0 12.3291
0 0 -15.3732
0 0 0.00453285
0 0 -5.50632
   </PointData>
   <CellData>
   </CellData>
   <Points>
    <DataArray type="Float64" Name="Points" NumberOfComponents="3"/>
4.48202 2.54966 0.7
4.34057 2.69089 0.7
4.19964 2.83194 0.7
4.19859 3.03092 0.7
4.2573 3.22077 0.7
4.39294 3.3661 0.7
4.37254 2.93236 0.7
4.53408 3.50733 0.7
   </Points>
   <Cells>
    <DataArray type="Int64" Name="connectivity" format="ascii">
0
1
2
3
4
5
6
7
    </DataArray>
    <DataArray type="Int64" Name="offsets" format="ascii">
1
2
3
4
5
6
7
8
    </DataArray>
    <DataArray type="Int64" Name="types" format="ascii">
1
1
1
1
1
1
1
1
    </DataArray>
   </Cells>
  </Piece>
 </UnstructuredGrid>
</VTKFile>