<?xml version="1.0"?>
<VTKFile type="UnstructuredGrid" version="0.1" byte_order="LittleEndian" compressor="vtkZLibDataCompressor">
 <UnstructuredGrid GhostLevel="0">
  <Piece NumberOfPoints="8" NumberOfCells="8">
   <PointData>
    <DataArray type="Float64" Name="radius"/>
0.1
0.1
0.1
0.1
0.1
0.1
0.1
0.1
    <DataArray type="Float64" Name="mass"/>
10.472
10.472
10.472
10.472
10.472
10.472
10.472
10.472
    <DataArray type="Float64" Name="particleIndex"/>
0
1
2
3
4
5
6
7
    <DataArray type="Float64" Name="clusterIndex"/>
0
1
2
3
4
5
6
7
    <DataArray type="Float64" Name="v" NumberOfComponents="3"/>
0.00530186 -0.0059941 0
0.00635059 -0.00591848 0
0.00884268 -0.00703026 0
-0.00155722 -0.0101111 0
0.00628684 -0.0123783 0
-0.00390517 -0.00239295 0
0.00331968 0.000980712 0
-0.00367923 -0.00262711 0
    <DataArray type="Float64" Name="w" NumberOfComponents="3"/>
0 0 -0.0687466
0 0 -0.112998
0 0 0.151291
0 0 -0.111943
0 0 0.0487641
0 0 0.081226
0 0 0.0199575
0 0 -0.0532447
    <DataArray type="Float64" Name="FParticle" NumberOfComponents="3"/>
37.0954 -96.2165 0
469.953 -451.097 0
-479.808 -294.286 0
-731.562 -31.4467 0
103.755 36.2886 0
657.806 180.302 0
97.5297 9.61546 0
-154.769 646.841 0
    <DataArray type="Float64" Name="FGrav" NumberOfComponents="3"/>
-102.73 0 0
-102.73 0 0
-102.73 0 0
-102.73 0 0
-102.73 0 0
-102.73 0 0
-102.73 0 0
-102.73 0 0
    <DataArray type="Float64" Name="MParticle" NumberOfComponents="3"/>
0 0 4.18945
0 0 4.18945
0 0 -2.46464
0 0 32.6535
0 0 14.314
0 0 -72.2432
0 0 0.28159
0 0 -56.6499
    <DataArray type="Float64" Name="FWall" NumberOfComponents="3"/>
37.3771 89.8045 0
336.295 342.538 0
0 0 0
1097.4 33.0266 0
0 0 0
-750.449 -718.836 0
0 0 0
-98.5395 -532.684 0
    <DataArray type="Float64" Name="MWall" NumberOfComponents="3"/>
0 0 -3.6197
0 0 0
0 0 0
0 0 -17.0586
0 0 0
0 0 101.996
0 0 0
0 0 37.0164
    <DataArray type="Float64" Name="FHydro" NumberOfComponents="3"/>
0 0 0
0 0 0
0 0 0
0 0 0
0 0 0
0 0 0
0 0 0
0 0 0
    <DataArray type="Float64" Name="FSpringP" NumberOfComponents="3"/>
-29.5957 -29.652 0
29.5957 29.652 0
14.2393 -20.1168 0
-272.015 120.562 0
401.832 -196.994 0
282.509 -298.775 0
-25.6172 -4.87762 0
-400.948 400.202 0
    <DataArray type="Float64" Name="FSpringW" NumberOfComponents="3"/>
-25.8424 25.3455 0
0 0 0
0 0 0
21.4237 169.236 0
0 0 0
-858.024 -551.457 0
0 0 0
-311.768 -199.555 0
    <DataArray type="Float64" Name="MRolling" NumberOfComponents="3"/>
0 0 1.3346
0 0 13.8021
0 0 -8.01216
0 0 31.005
0 0 -9.83758
0 0 7.01425
0 0 0.0283187
0 0 9.6529
   </PointData>
   <CellData>
   </CellData>
   <Points>
    <DataArray type="Float64" Name="Points" NumberOfComponents="3"/>
4.49356 2.5392 0.7
4.35208 2.68042 0.7
4.21665 2.8266 0.7
4.19788 3.02495 0.7
4.26147 3.2135 0.7
4.39093 3.36467 0.7
4.37984 2.94212 0.7
4.53197 3.50599 0.7
   </Points>
   <Cells>
    <DataArray type="Int64" Name="connectivity" format="ascii">
0
1
2
3
4
5
6
7
    </DataArray>
    <DataArray type="Int64" Name="offsets" format="ascii">
1
2
3
4
5
6
7
8
    </DataArray>
    <DataArray type="Int64" Name="types" format="ascii">
1
1
1
1
1
1
1
1
    </DataArray>
   </Cells>
  </Piece>
 </UnstructuredGrid>
</VTKFile>