<?xml version="1.0"?>
<VTKFile type="UnstructuredGrid" version="0.1" byte_order="LittleEndian" compressor="vtkZLibDataCompressor">
 <UnstructuredGrid GhostLevel="0">
  <Piece NumberOfPoints="8" NumberOfCells="8">
   <PointData>
    <DataArray type="Float64" Name="radius"/>
0.1
0.1
0.1
0.1
0.1
0.1
0.1
0.1
    <DataArray type="Float64" Name="mass"/>
10.472
10.472
10.472
10.472
10.472
10.472
10.472
10.472
    <DataArray type="Float64" Name="particleIndex"/>
0
1
2
3
4
5
6
7
    <DataArray type="Float64" Name="clusterIndex"/>
0
1
2
3
4
5
6
7
    <DataArray type="Float64" Name="v" NumberOfComponents="3"/>
0.000196691 -6.73384e-05 0
-0.000206893 0.000290463 0
-0.000305317 -0.00011935 0
7.54712e-05 -0.000292171 0
0.000111072 -9.59669e-05 0
-5.45266e-05 -5.22543e-05 0
8.21373e-05 -0.000506357 0
-0.310586 -0.261042 0
    <DataArray type="Float64" Name="w" NumberOfComponents="3"/>
0 0 -0.00862561
0 0 0.00577926
0 0 0.00303037
0 0 0.000296573
0 0 0.00473809
0 0 -0.00129046
0 0 0.0155663
0 0 -3.7778
    <DataArray type="Float64" Name="FParticle" NumberOfComponents="3"/>
51.1681 -88.1888 0
93.5872 -84.829 0
-185.982 -86.5287 0
-126.587 -77.183 0
5.93603 163.841 0
55.2444 130.244 0
106.633 42.6447 0
0 0 0
    <DataArray type="Float64" Name="FGrav" NumberOfComponents="3"/>
-102.73 0 0
-102.73 0 0
-102.73 0 0
-102.73 0 0
-102.73 0 0
-102.73 0 0
-102.73 0 0
-102.73 0 0
    <DataArray type="Float64" Name="MParticle" NumberOfComponents="3"/>
0 0 2.61767
0 0 4.25308
0 0 -0.427349
0 0 -5.18008
0 0 -7.79523
0 0 -5.30384
0 0 -5.07038
0 0 0
    <DataArray type="Float64" Name="FWall" NumberOfComponents="3"/>
45.4887 73.0685 0
65.4977 80.4822 0
340.414 93.9112 0
197.094 72.9606 0
89.8569 -156.825 0
42.2713 -114.6 0
0 0 0
54.5649 -29.2305 0
    <DataArray type="Float64" Name="MWall" NumberOfComponents="3"/>
0 0 -1.07966
0 0 0
0 0 -11.6733
0 0 -8.63292
0 0 1.64513
0 0 3.10994
0 0 0
0 0 -2.29895
    <DataArray type="Float64" Name="FHydro" NumberOfComponents="3"/>
0 0 0
0 0 0
0 0 0
0 0 0
0 0 0
0 0 0
0 0 0
0 0 0
    <DataArray type="Float64" Name="FSpringP" NumberOfComponents="3"/>
-18.5099 -18.5095 0
6.76059 7.13367 0
21.2523 -7.8765 0
11.2448 -31.7485 0
13.6154 -30.4255 0
-37.5022 37.5054 0
3.13895 43.9209 0
0 0 0
    <DataArray type="Float64" Name="FSpringW" NumberOfComponents="3"/>
-8.37744 6.81068 0
0 0 0
7.89985 116.466 0
5.93111 86.1252 0
-13.4705 -9.44404 0
-25.476 -17.8366 0
0 0 0
17.6057 14.7837 0
    <DataArray type="Float64" Name="MRolling" NumberOfComponents="3"/>
0 0 2.20053
0 0 2.70758
0 0 -9.1384
0 0 -4.57855
0 0 -2.75894
0 0 -1.70665
0 0 0.597377
0 0 1.14948
   </PointData>
   <CellData>
   </CellData>
   <Points>
    <DataArray type="Float64" Name="Points" NumberOfComponents="3"/>
4.47969 2.5516 0.7
4.33834 2.69295 0.7
4.19938 2.83648 0.7
4.19943 3.03627 0.7
4.25618 3.22773 0.7
4.39752 3.36906 0.7
4.3726 2.93633 0.7
4.55286 3.52112 0.7
   </Points>
   <Cells>
    <DataArray type="Int64" Name="connectivity" format="ascii">
0
1
2
3
4
5
6
7
    </DataArray>
    <DataArray type="Int64" Name="offsets" format="ascii">
1
2
3
4
5
6
7
8
    </DataArray>
    <DataArray type="Int64" Name="types" format="ascii">
1
1
1
1
1
1
1
1
    </DataArray>
   </Cells>
  </Piece>
 </UnstructuredGrid>
</VTKFile>