<?xml version="1.0"?>
<VTKFile type="UnstructuredGrid" version="0.1" byte_order="LittleEndian" compressor="vtkZLibDataCompressor">
 <UnstructuredGrid GhostLevel="0">
  <Piece NumberOfPoints="8" NumberOfCells="8">
   <PointData>
    <DataArray type="Float64" Name="radius"/>
0.1
0.1
0.1
0.1
0.1
0.1
0.1
0.1
    <DataArray type="Float64" Name="mass"/>
10.472
10.472
10.472
10.472
10.472
10.472
10.472
10.472
    <DataArray type="Float64" Name="particleIndex"/>
0
1
2
3
4
5
6
7
    <DataArray type="Float64" Name="clusterIndex"/>
0
1
2
3
4
5
6
7
    <DataArray type="Float64" Name="v" NumberOfComponents="3"/>
-0.0103912 0.00829115 0
-0.00916558 0.00772465 0
-0.00165748 0.012787 0
0.000509794 0.0128811 0
0.0119921 0.00744006 0
0.00909363 0.00634333 0
-0.0014443 0.0132322 0
0.00767997 0.00628354 0
    <DataArray type="Float64" Name="w" NumberOfComponents="3"/>
0 0 -0.0161087
0 0 0.157712
0 0 -0.176943
0 0 -0.0285049
0 0 -0.0591264
0 0 0.0325279
0 0 0.271533
0 0 0.0532359
    <DataArray type="Float64" Name="FParticle" NumberOfComponents="3"/>
-70.3869 -614.246 0
111.04 -721.214 0
985.752 335.549 0
-1456.04 322.354 0
180.065 -120.607 0
77.1851 592.667 0
111.698 -0.0309343 0
60.6867 205.527 0
    <DataArray type="Float64" Name="FGrav" NumberOfComponents="3"/>
-102.73 0 0
-102.73 0 0
-102.73 0 0
-102.73 0 0
-102.73 0 0
-102.73 0 0
-102.73 0 0
-102.73 0 0
    <DataArray type="Float64" Name="MParticle" NumberOfComponents="3"/>
0 0 48.4063
0 0 136.337
0 0 -18.0417
0 0 -95.1939
0 0 -35.814
0 0 -56.8398
0 0 0
0 0 -10.2476
    <DataArray type="Float64" Name="FWall" NumberOfComponents="3"/>
210.679 258.886 0
-610.837 962.492 0
0 0 0
1057.14 -746.416 0
0 0 0
-426.369 -684.515 0
0 0 0
-63.0649 -215.817 0
    <DataArray type="Float64" Name="MWall" NumberOfComponents="3"/>
0 0 0
0 0 -108.195
0 0 0
0 0 67.7779
0 0 0
0 0 74.2087
0 0 0
0 0 17.5424
    <DataArray type="Float64" Name="FHydro" NumberOfComponents="3"/>
0 0 0
0 0 0
0 0 0
0 0 0
0 0 0
0 0 0
0 0 0
0 0 0
    <DataArray type="Float64" Name="FSpringP" NumberOfComponents="3"/>
-342.325 -342.243 0
-301.797 -256.322 0
1703.62 620.103 0
-1162.65 9.71768 0
433.102 -360.216 0
-257.513 256.476 0
0 0 0
-72.4391 72.4842 0
    <DataArray type="Float64" Name="FSpringW" NumberOfComponents="3"/>
0 0 0
-837.954 684.433 0
0 0 0
-43.04 -676.411 0
0 0 0
-607.606 -426.037 0
0 0 0
-143.716 -100.595 0
    <DataArray type="Float64" Name="MRolling" NumberOfComponents="3"/>
0 0 8.59868
0 0 -14.1333
0 0 10.2885
0 0 -30.3666
0 0 7.01635
0 0 -8.68569
0 0 -0.64375
0 0 -3.75393
   </PointData>
   <CellData>
   </CellData>
   <Points>
    <DataArray type="Float64" Name="Points" NumberOfComponents="3"/>
4.47968 2.55144 0.7
4.33853 2.69262 0.7
4.20308 2.83838 0.7
4.19904 3.03734 0.7
4.25683 3.22805 0.7
4.39757 3.36922 0.7
4.37444 2.94135 0.7
4.53891 3.51047 0.7
   </Points>
   <Cells>
    <DataArray type="Int64" Name="connectivity" format="ascii">
0
1
2
3
4
5
6
7
    </DataArray>
    <DataArray type="Int64" Name="offsets" format="ascii">
1
2
3
4
5
6
7
8
    </DataArray>
    <DataArray type="Int64" Name="types" format="ascii">
1
1
1
1
1
1
1
1
    </DataArray>
   </Cells>
  </Piece>
 </UnstructuredGrid>
</VTKFile>