<?xml version="1.0"?>
<VTKFile type="UnstructuredGrid" version="0.1" byte_order="LittleEndian" compressor="vtkZLibDataCompressor">
 <UnstructuredGrid GhostLevel="0">
  <Piece NumberOfPoints="8" NumberOfCells="8">
   <PointData>
    <DataArray type="Float64" Name="radius"/>
0.1
0.1
0.1
0.1
0.1
0.1
0.1
0.1
    <DataArray type="Float64" Name="mass"/>
10.472
10.472
10.472
10.472
10.472
10.472
10.472
10.472
    <DataArray type="Float64" Name="particleIndex"/>
0
1
2
3
4
5
6
7
    <DataArray type="Float64" Name="clusterIndex"/>
0
1
2
3
4
5
6
7
    <DataArray type="Float64" Name="v" NumberOfComponents="3"/>
-0.00204809 0.00164484 0
0.000461307 0.00407754 0
-0.00020773 0.00277646 0
-0.000540456 0.0010723 0
0.0186316 -0.00933702 0
0.00148666 0.00153575 0
6.1746e-05 0.001568 0
-0.000261001 0.000465412 0
    <DataArray type="Float64" Name="w" NumberOfComponents="3"/>
0 0 0.0263852
0 0 -0.0602751
0 0 0.13085
0 0 -0.162998
0 0 -0.0412327
0 0 0.221811
0 0 0.104803
0 0 -0.0683875
    <DataArray type="Float64" Name="FParticle" NumberOfComponents="3"/>
43.2537 -79.7863 0
147.652 -0.887649 0
-2448.91 -525.414 0
891.034 -1471.53 0
-80.3973 111.128 0
1753.41 421.779 0
163.258 -126.872 0
-469.298 1671.58 0
    <DataArray type="Float64" Name="FGrav" NumberOfComponents="3"/>
-102.73 0 0
-102.73 0 0
-102.73 0 0
-102.73 0 0
-102.73 0 0
-102.73 0 0
-102.73 0 0
-102.73 0 0
    <DataArray type="Float64" Name="MParticle" NumberOfComponents="3"/>
0 0 2.42082
0 0 -5.37516
0 0 216.109
0 0 251.459
0 0 -6.30169
0 0 -192.361
0 0 16.3708
0 0 -151.18
    <DataArray type="Float64" Name="FWall" NumberOfComponents="3"/>
61.7956 84.7592 0
0 0 0
1363.77 1302.58 0
535.58 3057.79 0
0 0 0
-2230.44 -1978.97 0
0 0 0
-468.849 -1461.7 0
    <DataArray type="Float64" Name="MWall" NumberOfComponents="3"/>
0 0 -0.502341
0 0 0
0 0 -138.571
0 0 -308.645
0 0 0
0 0 296.551
0 0 0
0 0 122.781
    <DataArray type="Float64" Name="FHydro" NumberOfComponents="3"/>
0 0 0
0 0 0
0 0 0
0 0 0
0 0 0
0 0 0
0 0 0
0 0 0
    <DataArray type="Float64" Name="FSpringP" NumberOfComponents="3"/>
-17.4335 -16.7961 0
72.5636 71.9179 0
-2234.52 52.7322 0
1816.83 157.17 0
636.332 -394.172 0
761.594 -795.31 0
36.1813 -141.998 0
-1071.55 1066.46 0
    <DataArray type="Float64" Name="FSpringW" NumberOfComponents="3"/>
-3.91275 3.1504 0
0 0 0
87.0897 1382.97 0
203.425 3079.73 0
0 0 0
-2411.62 -1725.79 0
0 0 0
-1001.67 -710.063 0
    <DataArray type="Float64" Name="MRolling" NumberOfComponents="3"/>
0 0 -2.53282
0 0 1.39749
0 0 -29.4499
0 0 -15.4561
0 0 24.5422
0 0 -22.6008
0 0 -0.732765
0 0 22.6953
   </PointData>
   <CellData>
   </CellData>
   <Points>
    <DataArray type="Float64" Name="Points" NumberOfComponents="3"/>
4.47895 2.55219 0.7
4.34025 2.69615 0.7
4.19895 2.83747 0.7
4.19942 3.03683 0.7
4.26908 3.22162 0.7
4.39915 3.37031 0.7
4.37249 2.93673 0.7
4.53965 3.51149 0.7
   </Points>
   <Cells>
    <DataArray type="Int64" Name="connectivity" format="ascii">
0
1
2
3
4
5
6
7
    </DataArray>
    <DataArray type="Int64" Name="offsets" format="ascii">
1
2
3
4
5
6
7
8
    </DataArray>
    <DataArray type="Int64" Name="types" format="ascii">
1
1
1
1
1
1
1
1
    </DataArray>
   </Cells>
  </Piece>
 </UnstructuredGrid>
</VTKFile>