<?xml version="1.0"?>
<VTKFile type="UnstructuredGrid" version="0.1" byte_order="LittleEndian" compressor="vtkZLibDataCompressor">
 <UnstructuredGrid GhostLevel="0">
  <Piece NumberOfPoints="8" NumberOfCells="8">
   <PointData>
    <DataArray type="Float64" Name="radius"/>
0.1
0.1
0.1
0.1
0.1
0.1
0.1
0.1
    <DataArray type="Float64" Name="mass"/>
10.472
10.472
10.472
10.472
10.472
10.472
10.472
10.472
    <DataArray type="Float64" Name="particleIndex"/>
0
1
2
3
4
5
6
7
    <DataArray type="Float64" Name="clusterIndex"/>
0
1
2
3
4
5
6
7
    <DataArray type="Float64" Name="v" NumberOfComponents="3"/>
0.00024418 -0.000100533 0
-1.18945e-05 8.26073e-05 0
-0.000190572 -0.000235065 0
-0.000144994 -1.56852e-07 0
-0.00048581 8.19298e-05 0
-0.000590291 -0.000274782 0
0.227959 -1.44603 0
-0.000262906 -0.000510547 0
    <DataArray type="Float64" Name="w" NumberOfComponents="3"/>
0 0 -0.005995
0 0 0.00598045
0 0 0.00149388
0 0 0.00290206
0 0 -0.00125079
0 0 -0.00816824
0 0 -14.7162
0 0 -0.00260473
    <DataArray type="Float64" Name="FParticle" NumberOfComponents="3"/>
57.7449 -67.3423 0
58.9031 -162.685 0
-40.6273 -36.9773 0
-219.731 -23.7688 0
40.3292 62.7469 0
57.4374 169.528 0
0 0 0
45.9436 58.4981 0
    <DataArray type="Float64" Name="FGrav" NumberOfComponents="3"/>
-102.73 0 0
-102.73 0 0
-102.73 0 0
-102.73 0 0
-102.73 0 0
-102.73 0 0
-102.73 0 0
-102.73 0 0
    <DataArray type="Float64" Name="MParticle" NumberOfComponents="3"/>
0 0 0.680259
0 0 8.27402
0 0 0.00378739
0 0 -2.10529
0 0 -3.3192
0 0 -9.69288
0 0 0
0 0 -0.888988
    <DataArray type="Float64" Name="FWall" NumberOfComponents="3"/>
44.4134 61.2194 0
53.9798 171.635 0
173.187 45.9293 0
316.888 49.6458 0
50.7922 -61.3496 0
55.6808 -160.29 0
0 0 0
52.341 -46.8951 0
    <DataArray type="Float64" Name="MWall" NumberOfComponents="3"/>
0 0 -0.413391
0 0 -6.64069
0 0 -5.74068
0 0 -7.11514
0 0 -0.632441
0 0 4.63201
0 0 0
0 0 -1.60034
    <DataArray type="Float64" Name="FHydro" NumberOfComponents="3"/>
0 0 0
0 0 0
0 0 0
0 0 0
0 0 0
0 0 0
0 0 0
0 0 0
    <DataArray type="Float64" Name="FSpringP" NumberOfComponents="3"/>
-4.80928 -4.81104 0
-49.8035 -47.9523 0
130.513 52.7977 0
-128.47 15.6024 0
114.85 -77.8634 0
-55.9941 55.9395 0
0 0 0
-6.28503 6.28716 0
    <DataArray type="Float64" Name="FSpringW" NumberOfComponents="3"/>
-3.20841 2.60678 0
-51.5219 41.8971 0
3.83858 57.2784 0
4.85466 70.9856 0
5.17638 3.63363 0
-37.9444 -26.5664 0
0 0 0
13.1127 9.17416 0
    <DataArray type="Float64" Name="MRolling" NumberOfComponents="3"/>
0 0 1.95265
0 0 -2.55424
0 0 -3.29177
0 0 -9.18882
0 0 -1.16141
0 0 -2.46219
0 0 0
0 0 -0.999344
   </PointData>
   <CellData>
   </CellData>
   <Points>
    <DataArray type="Float64" Name="Points" NumberOfComponents="3"/>
4.47965 2.55164 0.7
4.33826 2.69297 0.7
4.19947 2.83663 0.7
4.19938 3.03636 0.7
4.25631 3.22776 0.7
4.3975 3.36907 0.7
4.40749 3.01647 0.7
4.5389 3.51042 0.7
   </Points>
   <Cells>
    <DataArray type="Int64" Name="connectivity" format="ascii">
0
1
2
3
4
5
6
7
    </DataArray>
    <DataArray type="Int64" Name="offsets" format="ascii">
1
2
3
4
5
6
7
8
    </DataArray>
    <DataArray type="Int64" Name="types" format="ascii">
1
1
1
1
1
1
1
1
    </DataArray>
   </Cells>
  </Piece>
 </UnstructuredGrid>
</VTKFile>