<?xml version="1.0"?>
<VTKFile type="UnstructuredGrid" version="0.1" byte_order="LittleEndian" compressor="vtkZLibDataCompressor">
 <UnstructuredGrid GhostLevel="0">
  <Piece NumberOfPoints="8" NumberOfCells="8">
   <PointData>
    <DataArray type="Float64" Name="radius"/>
0.1
0.1
0.1
0.1
0.1
0.1
0.1
0.1
    <DataArray type="Float64" Name="mass"/>
10.472
10.472
10.472
10.472
10.472
10.472
10.472
10.472
    <DataArray type="Float64" Name="particleIndex"/>
0
1
2
3
4
5
6
7
    <DataArray type="Float64" Name="clusterIndex"/>
0
1
2
3
4
5
6
7
    <DataArray type="Float64" Name="v" NumberOfComponents="3"/>
-0.000113396 8.54201e-05 0
0.000630685 0.000752067 0
-1.96741e-05 -3.1188e-06 0
-0.000101369 0.000133001 0
0.00340866 -0.00130845 0
0.000950862 0.000731885 0
-5.02059e-05 1.23868e-05 0
0.000940635 0.000714179 0
    <DataArray type="Float64" Name="w" NumberOfComponents="3"/>
0 0 -0.0192761
0 0 0.00988138
0 0 0.0017771
0 0 -0.0380721
0 0 0.00691793
0 0 -0.0123053
0 0 0.0258117
0 0 0.0115709
    <DataArray type="Float64" Name="FParticle" NumberOfComponents="3"/>
75.4483 -116.762 0
105.494 -0.375526 0
-245.738 78.0053 0
-147.215 -290.263 0
-101.81 121.954 0
127.253 167.496 0
115.162 7.30687 0
71.4059 32.6384 0
    <DataArray type="Float64" Name="FGrav" NumberOfComponents="3"/>
-102.73 0 0
-102.73 0 0
-102.73 0 0
-102.73 0 0
-102.73 0 0
-102.73 0 0
-102.73 0 0
-102.73 0 0
    <DataArray type="Float64" Name="MParticle" NumberOfComponents="3"/>
0 0 2.88067
0 0 -1.88487
0 0 -4.67669
0 0 0.0888557
0 0 0
0 0 2.73857
0 0 0
0 0 2.73857
    <DataArray type="Float64" Name="FWall" NumberOfComponents="3"/>
-5.88333 159.904 0
0 0 0
334.574 -47.8471 0
350.976 -24.3326 0
0 0 0
130.897 -186.813 0
0 0 0
35.3713 -41.2844 0
    <DataArray type="Float64" Name="MWall" NumberOfComponents="3"/>
0 0 -10.5541
0 0 0
0 0 2.46108
0 0 0
0 0 0
0 0 0
0 0 0
0 0 -0.529389
    <DataArray type="Float64" Name="FHydro" NumberOfComponents="3"/>
0 0 0
0 0 0
0 0 0
0 0 0
0 0 0
0 0 0
0 0 0
0 0 0
    <DataArray type="Float64" Name="FSpringP" NumberOfComponents="3"/>
-20.4302 -20.3084 0
54.5316 53.597 0
-34.99 -33.2886 0
0.888557 2.51771e-05 0
0 0 0
-19.3575 19.3718 0
0 0 0
19.3575 -19.3718 0
    <DataArray type="Float64" Name="FSpringW" NumberOfComponents="3"/>
-81.834 66.6484 0
0 0 0
-1.70082 -24.5519 0
0 0 0
0 0 0
0 0 0
0 0 0
4.33645 3.03651 0
    <DataArray type="Float64" Name="MRolling" NumberOfComponents="3"/>
0 0 -1.72543
0 0 0.371073
0 0 -8.17281
0 0 9.02511
0 0 -3.09163
0 0 6.34002
0 0 0.0730575
0 0 -1.45003
   </PointData>
   <CellData>
   </CellData>
   <Points>
    <DataArray type="Float64" Name="Points" NumberOfComponents="3"/>
4.47981 2.55148 0.7
4.33891 2.69322 0.7
4.19935 2.83619 0.7
4.19935 3.03618 0.7
4.25684 3.22739 0.7
4.39755 3.36914 0.7
4.37248 2.93618 0.7
4.53897 3.51046 0.7
   </Points>
   <Cells>
    <DataArray type="Int64" Name="connectivity" format="ascii">
0
1
2
3
4
5
6
7
    </DataArray>
    <DataArray type="Int64" Name="offsets" format="ascii">
1
2
3
4
5
6
7
8
    </DataArray>
    <DataArray type="Int64" Name="types" format="ascii">
1
1
1
1
1
1
1
1
    </DataArray>
   </Cells>
  </Piece>
 </UnstructuredGrid>
</VTKFile>