<?xml version="1.0"?>
<VTKFile type="UnstructuredGrid" version="0.1" byte_order="LittleEndian" compressor="vtkZLibDataCompressor">
 <UnstructuredGrid GhostLevel="0">
  <Piece NumberOfPoints="8" NumberOfCells="8">
   <PointData>
    <DataArray type="Float64" Name="radius"/>
0.1
0.1
0.1
0.1
0.1
0.1
0.1
0.1
    <DataArray type="Float64" Name="mass"/>
10.472
10.472
10.472
10.472
10.472
10.472
10.472
10.472
    <DataArray type="Float64" Name="particleIndex"/>
0
1
2
3
4
5
6
7
    <DataArray type="Float64" Name="clusterIndex"/>
0
1
2
3
4
5
6
7
    <DataArray type="Float64" Name="v" NumberOfComponents="3"/>
0.00116343 -0.0010907 0
0.00155781 -0.00118542 0
0.00532477 0.00189996 0
9.37814e-05 0.00138802 0
0.000686308 0.000518929 0
0.000257308 0.000261033 0
0.00291502 0.00667183 0
7.17164e-05 0.000177212 0
    <DataArray type="Float64" Name="w" NumberOfComponents="3"/>
0 0 -0.00961727
0 0 0.0053877
0 0 -0.00331234
0 0 -0.0408042
0 0 0.00807433
0 0 -0.00931526
0 0 0.0598781
0 0 -0.00218148
    <DataArray type="Float64" Name="FParticle" NumberOfComponents="3"/>
82.3837 -16.0068 0
-167.245 -599.05 0
545.938 169.904 0
-827.723 165.585 0
213.409 -9.2724 0
-26.5793 227.458 0
116.362 37.536 0
63.4534 23.8459 0
    <DataArray type="Float64" Name="FGrav" NumberOfComponents="3"/>
-102.73 0 0
-102.73 0 0
-102.73 0 0
-102.73 0 0
-102.73 0 0
-102.73 0 0
-102.73 0 0
-102.73 0 0
    <DataArray type="Float64" Name="MParticle" NumberOfComponents="3"/>
0 0 -4.68812
0 0 44.0738
0 0 -1.16124
0 0 -37.8372
0 0 2.00914
0 0 -12.3542
0 0 -4.76825
0 0 2.79913
    <DataArray type="Float64" Name="FWall" NumberOfComponents="3"/>
52.7498 19.9161 0
-108.532 556.547 0
0 0 0
546.1 -344.64 0
30.5927 -68.9378 0
34.9409 -183.674 0
0 0 0
69.5896 -18.7816 0
    <DataArray type="Float64" Name="MWall" NumberOfComponents="3"/>
0 0 2.81655
0 0 -43.6872
0 0 0
0 0 30.4815
0 0 1.42815
0 0 7.60842
0 0 0
0 0 -4.64541
    <DataArray type="Float64" Name="FHydro" NumberOfComponents="3"/>
0 0 0
0 0 0
0 0 0
0 0 0
0 0 0
0 0 0
0 0 0
0 0 0
    <DataArray type="Float64" Name="FSpringP" NumberOfComponents="3"/>
33.1241 33.1759 0
-384.487 -371.283 0
851.348 342.567 0
-689.684 2.59648 0
271.818 -155.635 0
-126.986 126.9 0
25.0784 41.4766 0
19.7879 -19.7978 0
    <DataArray type="Float64" Name="FSpringW" NumberOfComponents="3"/>
21.781 -17.8573 0
-337.779 277.061 0
0 0 0
-21.7389 -304.039 0
-11.7208 -8.15999 0
-62.4891 -43.4042 0
0 0 0
38.16 26.4915 0
    <DataArray type="Float64" Name="MRolling" NumberOfComponents="3"/>
0 0 0.628867
0 0 9.49935
0 0 0.445635
0 0 -14.7412
0 0 1.05272
0 0 -4.74363
0 0 -0.526546
0 0 -0.793581
   </PointData>
   <CellData>
   </CellData>
   <Points>
    <DataArray type="Float64" Name="Points" NumberOfComponents="3"/>
4.48034 2.55109 0.7
4.33885 2.69236 0.7
4.20045 2.83619 0.7
4.1992 3.03576 0.7
4.25567 3.22731 0.7
4.39689 3.36865 0.7
4.37309 2.93705 0.7
4.5383 3.51 0.7
   </Points>
   <Cells>
    <DataArray type="Int64" Name="connectivity" format="ascii">
0
1
2
3
4
5
6
7
    </DataArray>
    <DataArray type="Int64" Name="offsets" format="ascii">
1
2
3
4
5
6
7
8
    </DataArray>
    <DataArray type="Int64" Name="types" format="ascii">
1
1
1
1
1
1
1
1
    </DataArray>
   </Cells>
  </Piece>
 </UnstructuredGrid>
</VTKFile>