<?xml version="1.0"?>
<VTKFile type="UnstructuredGrid" version="0.1" byte_order="LittleEndian" compressor="vtkZLibDataCompressor">
 <UnstructuredGrid GhostLevel="0">
  <Piece NumberOfPoints="8" NumberOfCells="8">
   <PointData>
    <DataArray type="Float64" Name="radius"/>
0.1
0.1
0.1
0.1
0.1
0.1
0.1
0.1
    <DataArray type="Float64" Name="mass"/>
10.472
10.472
10.472
10.472
10.472
10.472
10.472
10.472
    <DataArray type="Float64" Name="particleIndex"/>
0
1
2
3
4
5
6
7
    <DataArray type="Float64" Name="clusterIndex"/>
0
1
2
3
4
5
6
7
    <DataArray type="Float64" Name="v" NumberOfComponents="3"/>
0.000228439 -0.000128094 0
-5.37966e-05 -0.000243953 0
0.000417381 2.95617e-05 0
-0.000415637 -0.000160762 0
9.75951e-05 -7.79955e-05 0
-3.14861e-06 2.93989e-08 0
5.7847e-05 0.000782353 0
2.14895e-06 -3.44046e-06 0
    <DataArray type="Float64" Name="w" NumberOfComponents="3"/>
0 0 -0.00417264
0 0 0.0133141
0 0 0.0201419
0 0 -0.0042118
0 0 0.00286782
0 0 0.000877415
0 0 -0.0147715
0 0 0.000456966
    <DataArray type="Float64" Name="FParticle" NumberOfComponents="3"/>
45.93 -45.8972 0
-44.9293 -253.46 0
-16.0532 48.9238 0
-205.05 -7.38578 0
-4.64151 93.2141 0
62.578 121.306 0
107.596 -24.7215 0
54.5696 68.0202 0
    <DataArray type="Float64" Name="FGrav" NumberOfComponents="3"/>
-102.73 0 0
-102.73 0 0
-102.73 0 0
-102.73 0 0
-102.73 0 0
-102.73 0 0
-102.73 0 0
-102.73 0 0
    <DataArray type="Float64" Name="MParticle" NumberOfComponents="3"/>
0 0 0
0 0 20.7829
0 0 18.0416
0 0 -0.182954
0 0 -2.27949
0 0 -6.05181
0 0 2.31063
0 0 -0.951338
    <DataArray type="Float64" Name="FWall" NumberOfComponents="3"/>
39.8774 34.0534 0
37.5424 232.736 0
195.969 104.345 0
335.191 27.0096 0
101.601 -89.1644 0
42.782 -111.626 0
0 0 0
45.0958 -59.5039 0
    <DataArray type="Float64" Name="MWall" NumberOfComponents="3"/>
0 0 0.935362
0 0 -11.8165
0 0 -11.7809
0 0 -5.08112
0 0 -3.24223
0 0 2.8555
0 0 0
0 0 -0.311561
    <DataArray type="Float64" Name="FHydro" NumberOfComponents="3"/>
0 0 0
0 0 0
0 0 0
0 0 0
0 0 0
0 0 0
0 0 0
0 0 0
    <DataArray type="Float64" Name="FSpringP" NumberOfComponents="3"/>
0 0 0
-149.099 -144.785 0
182.946 155.945 0
-62.2315 16.8156 0
63.1349 -44.0202 0
-29.3446 29.3331 0
1.32095 -20.0157 0
-6.72679 6.72716 0
    <DataArray type="Float64" Name="FSpringW" NumberOfComponents="3"/>
7.24551 -5.91548 0
-91.5119 74.7564 0
8.24793 117.52 0
3.61846 50.6822 0
26.6066 18.5282 0
-23.4509 -16.2925 0
0 0 0
2.55945 1.77658 0
    <DataArray type="Float64" Name="MRolling" NumberOfComponents="3"/>
0 0 -0.707301
0 0 -5.48179
0 0 5.72457
0 0 -9.65938
0 0 -2.19421
0 0 -1.67149
0 0 0.613393
0 0 -1.05851
   </PointData>
   <CellData>
   </CellData>
   <Points>
    <DataArray type="Float64" Name="Points" NumberOfComponents="3"/>
4.48002 2.55135 0.7
4.3386 2.69268 0.7
4.19942 2.836 0.7
4.19933 3.03577 0.7
4.25568 3.22735 0.7
4.39692 3.36864 0.7
4.37257 2.93597 0.7
4.53829 3.51 0.7
   </Points>
   <Cells>
    <DataArray type="Int64" Name="connectivity" format="ascii">
0
1
2
3
4
5
6
7
    </DataArray>
    <DataArray type="Int64" Name="offsets" format="ascii">
1
2
3
4
5
6
7
8
    </DataArray>
    <DataArray type="Int64" Name="types" format="ascii">
1
1
1
1
1
1
1
1
    </DataArray>
   </Cells>
  </Piece>
 </UnstructuredGrid>
</VTKFile>