<?xml version="1.0"?>
<VTKFile type="UnstructuredGrid" version="0.1" byte_order="LittleEndian" compressor="vtkZLibDataCompressor">
 <UnstructuredGrid GhostLevel="0">
  <Piece NumberOfPoints="8" NumberOfCells="8">
   <PointData>
    <DataArray type="Float64" Name="radius"/>
0.1
0.1
0.1
0.1
0.1
0.1
0.1
0.1
    <DataArray type="Float64" Name="mass"/>
10.472
10.472
10.472
10.472
10.472
10.472
10.472
10.472
    <DataArray type="Float64" Name="particleIndex"/>
0
1
2
3
4
5
6
7
    <DataArray type="Float64" Name="clusterIndex"/>
0
1
2
3
4
5
6
7
    <DataArray type="Float64" Name="v" NumberOfComponents="3"/>
0.0110019 -0.0122036 0
0.0106259 -0.0119481 0
0.0168344 -0.00685543 0
-0.000985644 -0.00862525 0
0.00346201 -0.00996393 0
-0.00418203 -0.00243981 0
0.00445091 0.00670295 0
-0.00362517 -0.00264286 0
    <DataArray type="Float64" Name="w" NumberOfComponents="3"/>
0 0 -0.197734
0 0 -0.249746
0 0 0.265071
0 0 -0.0200642
0 0 0.0392454
0 0 0.052955
0 0 0.0905732
0 0 -0.0444678
    <DataArray type="Float64" Name="FParticle" NumberOfComponents="3"/>
57.4733 -133.878 0
415.755 -415.589 0
-58.3825 -197.787 0
-900.607 50.7163 0
29.0334 51.684 0
425.462 188.55 0
107.584 25.1188 0
-76.3177 431.185 0
    <DataArray type="Float64" Name="FGrav" NumberOfComponents="3"/>
-102.73 0 0
-102.73 0 0
-102.73 0 0
-102.73 0 0
-102.73 0 0
-102.73 0 0
-102.73 0 0
-102.73 0 0
    <DataArray type="Float64" Name="MParticle" NumberOfComponents="3"/>
0 0 5.41089
0 0 5.41089
0 0 -34.4965
0 0 -19.3977
0 0 1.86864
0 0 -46.5502
0 0 -2.14871
0 0 -35.8732
    <DataArray type="Float64" Name="FWall" NumberOfComponents="3"/>
-19.4926 214.047 0
273.725 245.609 0
0 0 0
968.604 -19.1998 0
0 0 0
-457.566 -531.58 0
0 0 0
-40.8959 -353.083 0
    <DataArray type="Float64" Name="MWall" NumberOfComponents="3"/>
0 0 -17.2232
0 0 0
0 0 0
0 0 -13.3084
0 0 0
0 0 66.881
0 0 0
0 0 22.0197
    <DataArray type="Float64" Name="FHydro" NumberOfComponents="3"/>
0 0 0
0 0 0
0 0 0
0 0 0
0 0 0
0 0 0
0 0 0
0 0 0
    <DataArray type="Float64" Name="FSpringP" NumberOfComponents="3"/>
-38.2373 -38.2843 0
38.2373 38.2843 0
331.808 36.3715 0
-433.987 -9.62249 0
201.979 -108.728 0
169.687 -187.757 0
-15.6967 16.2024 0
-253.79 253.534 0
    <DataArray type="Float64" Name="FSpringW" NumberOfComponents="3"/>
-115.126 128.102 0
0 0 0
0 0 0
20.8908 131.434 0
0 0 0
-568.736 -351.918 0
0 0 0
-187.401 -115.618 0
    <DataArray type="Float64" Name="MRolling" NumberOfComponents="3"/>
0 0 1.8952
0 0 11.6574
0 0 -7.70503
0 0 -11.1898
0 0 -7.31788
0 0 6.48623
0 0 -0.121632
0 0 6.83599
   </PointData>
   <CellData>
   </CellData>
   <Points>
    <DataArray type="Float64" Name="Points" NumberOfComponents="3"/>
4.50226 2.53009 0.7
4.36086 2.67132 0.7
4.23081 2.82232 0.7
4.19704 3.01868 0.7
4.26526 3.20588 0.7
4.38803 3.36286 0.7
4.38476 2.94991 0.7
4.5292 3.50417 0.7
   </Points>
   <Cells>
    <DataArray type="Int64" Name="connectivity" format="ascii">
0
1
2
3
4
5
6
7
    </DataArray>
    <DataArray type="Int64" Name="offsets" format="ascii">
1
2
3
4
5
6
7
8
    </DataArray>
    <DataArray type="Int64" Name="types" format="ascii">
1
1
1
1
1
1
1
1
    </DataArray>
   </Cells>
  </Piece>
 </UnstructuredGrid>
</VTKFile>