<?xml version="1.0"?>
<VTKFile type="UnstructuredGrid" version="0.1" byte_order="LittleEndian" compressor="vtkZLibDataCompressor">
 <UnstructuredGrid GhostLevel="0">
  <Piece NumberOfPoints="8" NumberOfCells="8">
   <PointData>
    <DataArray type="Float64" Name="radius"/>
0.1
0.1
0.1
0.1
0.1
0.1
0.1
0.1
    <DataArray type="Float64" Name="mass"/>
10.472
10.472
10.472
10.472
10.472
10.472
10.472
10.472
    <DataArray type="Float64" Name="particleIndex"/>
0
1
2
3
4
5
6
7
    <DataArray type="Float64" Name="clusterIndex"/>
0
1
2
3
4
5
6
7
    <DataArray type="Float64" Name="v" NumberOfComponents="3"/>
0.000687611 -0.000628465 0
1.98557e-05 -0.00128237 0
-0.000602811 -0.00150496 0
0.000186548 -0.00143392 0
0.000450095 -0.00273757 0
-0.00212819 -0.00126984 0
-0.00031657 -0.000864749 0
-0.00204778 -0.00137301 0
    <DataArray type="Float64" Name="w" NumberOfComponents="3"/>
0 0 -0.00904197
0 0 0.0164594
0 0 -0.0134906
0 0 -0.0378277
0 0 0.0175098
0 0 -0.0342669
0 0 0.0194636
0 0 0.0137802
    <DataArray type="Float64" Name="FParticle" NumberOfComponents="3"/>
60.2126 -130.039 0
92.8709 -7.27344 0
-214.345 101.42 0
-137.186 -247.617 0
-83.2534 112.333 0
119.878 120.269 0
115.467 4.58354 0
46.3562 46.3222 0
    <DataArray type="Float64" Name="FGrav" NumberOfComponents="3"/>
-102.73 0 0
-102.73 0 0
-102.73 0 0
-102.73 0 0
-102.73 0 0
-102.73 0 0
-102.73 0 0
-102.73 0 0
    <DataArray type="Float64" Name="MParticle" NumberOfComponents="3"/>
0 0 4.90671
0 0 3.52796
0 0 -1.42249
0 0 0
0 0 0
0 0 0
0 0 -0.0437425
0 0 0
    <DataArray type="Float64" Name="FWall" NumberOfComponents="3"/>
43.2693 122.069 0
0 0 0
317.998 -91.6782 0
344.685 -23.8643 0
0 0 0
54.3062 -225.725 0
0 0 0
42.5831 -23.5254 0
    <DataArray type="Float64" Name="MWall" NumberOfComponents="3"/>
0 0 -4.35377
0 0 0
0 0 6.95001
0 0 0
0 0 0
0 0 8.48666
0 0 0
0 0 -2.14235
    <DataArray type="Float64" Name="FHydro" NumberOfComponents="3"/>
0 0 0
0 0 0
0 0 0
0 0 0
0 0 0
0 0 0
0 0 0
0 0 0
    <DataArray type="Float64" Name="FSpringP" NumberOfComponents="3"/>
-34.7748 -34.6163 0
44.6484 44.2396 0
-9.65479 -10.002 0
0 0 0
0 0 0
0 0 0
-0.218792 0.378775 0
0 0 0
    <DataArray type="Float64" Name="FSpringW" NumberOfComponents="3"/>
-33.7579 27.4944 0
0 0 0
-4.7993 -69.3342 0
0 0 0
0 0 0
-69.5455 -48.6392 0
0 0 0
17.559 12.2739 0
    <DataArray type="Float64" Name="MRolling" NumberOfComponents="3"/>
0 0 3.11268
0 0 -1.6991
0 0 7.8523
0 0 8.67822
0 0 -2.63175
0 0 5.82636
0 0 -0.667987
0 0 -1.20123
   </PointData>
   <CellData>
   </CellData>
   <Points>
    <DataArray type="Float64" Name="Points" NumberOfComponents="3"/>
4.47982 2.55147 0.7
4.33881 2.69312 0.7
4.19936 2.8362 0.7
4.19935 3.0362 0.7
4.2563 3.22763 0.7
4.39741 3.36904 0.7
4.37248 2.9362 0.7
4.53883 3.51036 0.7
   </Points>
   <Cells>
    <DataArray type="Int64" Name="connectivity" format="ascii">
0
1
2
3
4
5
6
7
    </DataArray>
    <DataArray type="Int64" Name="offsets" format="ascii">
1
2
3
4
5
6
7
8
    </DataArray>
    <DataArray type="Int64" Name="types" format="ascii">
1
1
1
1
1
1
1
1
    </DataArray>
   </Cells>
  </Piece>
 </UnstructuredGrid>
</VTKFile>