<?xml version="1.0"?>
<VTKFile type="UnstructuredGrid" version="0.1" byte_order="LittleEndian" compressor="vtkZLibDataCompressor">
 <UnstructuredGrid GhostLevel="0">
  <Piece NumberOfPoints="8" NumberOfCells="8">
   <PointData>
    <DataArray type="Float64" Name="radius"/>
0.1
0.1
0.1
0.1
0.1
0.1
0.1
0.1
    <DataArray type="Float64" Name="mass"/>
10.472
10.472
10.472
10.472
10.472
10.472
10.472
10.472
    <DataArray type="Float64" Name="particleIndex"/>
0
1
2
3
4
5
6
7
    <DataArray type="Float64" Name="clusterIndex"/>
0
1
2
3
4
5
6
7
    <DataArray type="Float64" Name="v" NumberOfComponents="3"/>
-0.000371422 0.000304376 0
0.00064266 0.00133846 0
-0.000210128 -1.95649e-05 0
-0.000214887 -0.000780246 0
0.0116986 -0.00621397 0
0.00141739 0.0013092 0
-5.82243e-05 -0.000616255 0
0.000741666 0.000780545 0
    <DataArray type="Float64" Name="w" NumberOfComponents="3"/>
0 0 0.00569547
0 0 -0.0181124
0 0 0.045312
0 0 -0.105663
0 0 -0.0147098
0 0 0.137435
0 0 0.0523291
0 0 0.0141693
    <DataArray type="Float64" Name="FParticle" NumberOfComponents="3"/>
61.2837 -91.1117 0
131.803 10.2043 0
-1127.1 -180.923 0
250.193 -687.091 0
6.0618 57.5522 0
575.751 425.136 0
127.217 -43.9123 0
-25.213 510.146 0
    <DataArray type="Float64" Name="FGrav" NumberOfComponents="3"/>
-102.73 0 0
-102.73 0 0
-102.73 0 0
-102.73 0 0
-102.73 0 0
-102.73 0 0
-102.73 0 0
-102.73 0 0
    <DataArray type="Float64" Name="MParticle" NumberOfComponents="3"/>
0 0 1.98183
0 0 -6.04229
0 0 81.7699
0 0 107.694
0 0 -2.51951
0 0 -62.187
0 0 5.93595
0 0 -37.8494
    <DataArray type="Float64" Name="FWall" NumberOfComponents="3"/>
43.451 102.556 0
0 0 0
733.632 420.374 0
405.593 1433.54 0
0 0 0
-784.064 -984.009 0
0 0 0
-181.574 -488.255 0
    <DataArray type="Float64" Name="MWall" NumberOfComponents="3"/>
0 0 -3.08438
0 0 0
0 0 -46.8255
0 0 -145.772
0 0 0
0 0 120.866
0 0 0
0 0 42.9961
    <DataArray type="Float64" Name="FHydro" NumberOfComponents="3"/>
0 0 0
0 0 0
0 0 0
0 0 0
0 0 0
0 0 0
0 0 0
0 0 0
    <DataArray type="Float64" Name="FSpringP" NumberOfComponents="3"/>
-14.1781 -13.8473 0
71.1858 70.3164 0
-930.245 -12.9255 0
646.482 76.1335 0
383.947 -235.582 0
90.9737 -100.24 0
19.5193 -51.4434 0
-267.684 267.588 0
    <DataArray type="Float64" Name="FSpringW" NumberOfComponents="3"/>
-23.9573 19.4265 0
0 0 0
31.1556 467.217 0
98.7511 1454.37 0
0 0 0
-986.157 -698.82 0
0 0 0
-351.221 -248.013 0
    <DataArray type="Float64" Name="MRolling" NumberOfComponents="3"/>
0 0 -2.68051
0 0 1.50683
0 0 -16.0514
0 0 2.19084
0 0 10.8737
0 0 -13.9937
0 0 -0.621547
0 0 7.59688
   </PointData>
   <CellData>
   </CellData>
   <Points>
    <DataArray type="Float64" Name="Points" NumberOfComponents="3"/>
4.47949 2.55175 0.7
4.33982 2.69475 0.7
4.1992 2.83672 0.7
4.1994 3.03646 0.7
4.26159 3.22536 0.7
4.39838 3.3698 0.7
4.37251 2.93641 0.7
4.53954 3.51101 0.7
   </Points>
   <Cells>
    <DataArray type="Int64" Name="connectivity" format="ascii">
0
1
2
3
4
5
6
7
    </DataArray>
    <DataArray type="Int64" Name="offsets" format="ascii">
1
2
3
4
5
6
7
8
    </DataArray>
    <DataArray type="Int64" Name="types" format="ascii">
1
1
1
1
1
1
1
1
    </DataArray>
   </Cells>
  </Piece>
 </UnstructuredGrid>
</VTKFile>