<?xml version="1.0"?>
<VTKFile type="UnstructuredGrid" version="0.1" byte_order="LittleEndian" compressor="vtkZLibDataCompressor">
 <UnstructuredGrid GhostLevel="0">
  <Piece NumberOfPoints="8" NumberOfCells="8">
   <PointData>
    <DataArray type="Float64" Name="radius"/>
0.1
0.1
0.1
0.1
0.1
0.1
0.1
0.1
    <DataArray type="Float64" Name="mass"/>
10.472
10.472
10.472
10.472
10.472
10.472
10.472
10.472
    <DataArray type="Float64" Name="particleIndex"/>
0
1
2
3
4
5
6
7
    <DataArray type="Float64" Name="clusterIndex"/>
0
1
2
3
4
5
6
7
    <DataArray type="Float64" Name="v" NumberOfComponents="3"/>
-3.7411e-05 -0.000380275 0
-0.000704454 -0.00228903 0
0.000433198 -0.00181539 0
0.0120098 -0.0344065 0
-0.00680943 -0.00999386 0
-0.253779 -0.19093 0
0.0205162 -0.035932 0
0.0166778 0.0169125 0
    <DataArray type="Float64" Name="w" NumberOfComponents="3"/>
0 0 0.00371498
0 0 0.00596908
0 0 -0.0202657
0 0 -0.00457735
0 0 0.0260755
0 0 -2.10349
0 0 0.0158766
0 0 0.237374
    <DataArray type="Float64" Name="FParticle" NumberOfComponents="3"/>
52.6273 -120.027 0
114.572 13.7021 0
-207.876 54.5913 0
-98.5029 -20.6549 0
50.9954 64.067 0
0 0 0
88.1842 8.32187 0
0 0 0
    <DataArray type="Float64" Name="FGrav" NumberOfComponents="3"/>
-102.73 0 0
-102.73 0 0
-102.73 0 0
-102.73 0 0
-102.73 0 0
-102.73 0 0
-102.73 0 0
-102.73 0 0
    <DataArray type="Float64" Name="MParticle" NumberOfComponents="3"/>
0 0 4.75568
0 0 0.129879
0 0 -7.06993
0 0 4.42394
0 0 3.04112
0 0 0
0 0 -1.06131
0 0 0
    <DataArray type="Float64" Name="FWall" NumberOfComponents="3"/>
54.2612 112.591 0
0 0 0
300.928 -49.1653 0
197.516 64.2281 0
67.6735 -43.8095 0
51.9889 -31.5722 0
0 0 0
59.1501 -44.1181 0
    <DataArray type="Float64" Name="MWall" NumberOfComponents="3"/>
0 0 -2.88151
0 0 0
0 0 2.91389
0 0 -7.71366
0 0 -2.99401
0 0 -2.25897
0 0 0
0 0 -1.01821
    <DataArray type="Float64" Name="FHydro" NumberOfComponents="3"/>
0 0 0
0 0 0
0 0 0
0 0 0
0 0 0
0 0 0
0 0 0
0 0 0
    <DataArray type="Float64" Name="FSpringP" NumberOfComponents="3"/>
-33.6559 -33.5995 0
66.9051 65.7599 0
-21.0205 -53.3225 0
-22.2091 20.7218 0
29.1259 -8.7478 0
0 0 0
-19.1455 9.18813 0
0 0 0
    <DataArray type="Float64" Name="FSpringW" NumberOfComponents="3"/>
-22.3744 18.1575 0
0 0 0
-1.92871 -29.075 0
5.09598 76.9681 0
24.441 17.293 0
18.0578 13.5724 0
0 0 0
7.1556 7.24374 0
    <DataArray type="Float64" Name="MRolling" NumberOfComponents="3"/>
0 0 3.04297
0 0 -1.57397
0 0 -4.8016
0 0 4.55123
0 0 -1.87715
0 0 1.12949
0 0 -0.619776
0 0 -1.46171
   </PointData>
   <CellData>
   </CellData>
   <Points>
    <DataArray type="Float64" Name="Points" NumberOfComponents="3"/>
4.47954 2.5517 0.7
4.33832 2.69315 0.7
4.19941 2.83677 0.7
4.19942 3.0368 0.7
4.25691 3.2282 0.7
4.40299 3.37299 0.7
4.37252 2.93681 0.7
4.56652 3.53374 0.7
   </Points>
   <Cells>
    <DataArray type="Int64" Name="connectivity" format="ascii">
0
1
2
3
4
5
6
7
    </DataArray>
    <DataArray type="Int64" Name="offsets" format="ascii">
1
2
3
4
5
6
7
8
    </DataArray>
    <DataArray type="Int64" Name="types" format="ascii">
1
1
1
1
1
1
1
1
    </DataArray>
   </Cells>
  </Piece>
 </UnstructuredGrid>
</VTKFile>