<?xml version="1.0"?>
<VTKFile type="UnstructuredGrid" version="0.1" byte_order="LittleEndian" compressor="vtkZLibDataCompressor">
 <UnstructuredGrid GhostLevel="0">
  <Piece NumberOfPoints="8" NumberOfCells="8">
   <PointData>
    <DataArray type="Float64" Name="radius"/>
0.1
0.1
0.1
0.1
0.1
0.1
0.1
0.1
    <DataArray type="Float64" Name="mass"/>
10.472
10.472
10.472
10.472
10.472
10.472
10.472
10.472
    <DataArray type="Float64" Name="particleIndex"/>
0
1
2
3
4
5
6
7
    <DataArray type="Float64" Name="clusterIndex"/>
0
1
2
3
4
5
6
7
    <DataArray type="Float64" Name="v" NumberOfComponents="3"/>
1.30149e-05 -3.0544e-05 0
7.56401e-05 -2.42841e-07 0
0.000110347 5.20841e-05 0
0.00010485 4.95015e-05 0
0.000114892 0.000245322 0
0.000524708 0.000205183 0
-0.239118 0.424372 0
0.000365868 0.000250245 0
    <DataArray type="Float64" Name="w" NumberOfComponents="3"/>
0 0 0.000626426
0 0 -0.00118503
0 0 -0.00163822
0 0 -0.000289017
0 0 0.00446052
0 0 -0.0099641
0 0 4.84546
0 0 0.00465657
    <DataArray type="Float64" Name="FParticle" NumberOfComponents="3"/>
59.7554 -92.7574 0
74.2661 -43.9289 0
-244.715 -15.8879 0
1.91815 -36.4946 0
-50.8577 118.928 0
42.2957 -17.9372 0
67.2119 37.9431 0
50.1258 50.1351 0
    <DataArray type="Float64" Name="FGrav" NumberOfComponents="3"/>
-102.73 0 0
-102.73 0 0
-102.73 0 0
-102.73 0 0
-102.73 0 0
-102.73 0 0
-102.73 0 0
-102.73 0 0
    <DataArray type="Float64" Name="MParticle" NumberOfComponents="3"/>
0 0 2.33119
0 0 2.26204
0 0 4.27277
0 0 4.06405
0 0 3.97832
0 0 4.25619
0 0 0
0 0 0
    <DataArray type="Float64" Name="FWall" NumberOfComponents="3"/>
39.8178 98.129 0
17.2653 28.4858 0
356.013 -9.11538 0
124.91 38.406 0
151.82 -106.055 0
22.5792 -32.3805 0
0 0 0
42.2822 -35.0211 0
    <DataArray type="Float64" Name="MWall" NumberOfComponents="3"/>
0 0 -3.12167
0 0 -0.465983
0 0 -1.60623
0 0 -4.72004
0 0 -6.38011
0 0 0
0 0 0
0 0 -1.46701
    <DataArray type="Float64" Name="FHydro" NumberOfComponents="3"/>
0 0 0
0 0 0
0 0 0
0 0 0
0 0 0
0 0 0
0 0 0
0 0 0
    <DataArray type="Float64" Name="FSpringP" NumberOfComponents="3"/>
-16.4877 -16.4803 0
16.9831 16.9626 0
-43.9147 -0.458561 0
46.0849 -0.808 0
-32.7538 30.8878 0
30.0881 -30.1035 0
0 0 0
0 0 0
    <DataArray type="Float64" Name="FSpringW" NumberOfComponents="3"/>
-24.1809 19.7425 0
-3.60793 2.94904 0
1.13492 16.0222 0
3.36003 47.0807 0
52.3191 36.5142 0
0 0 0
0 0 0
12.0363 8.38673 0
    <DataArray type="Float64" Name="MRolling" NumberOfComponents="3"/>
0 0 -2.56312
0 0 0.241744
0 0 9.03168
0 0 -2.2269
0 0 -4.70137
0 0 1.58464
0 0 -0.385912
0 0 -1.4126
   </PointData>
   <CellData>
   </CellData>
   <Points>
    <DataArray type="Float64" Name="Points" NumberOfComponents="3"/>
4.48001 2.55133 0.7
4.33869 2.69271 0.7
4.19932 2.83588 0.7
4.19943 3.03577 0.7
4.25583 3.22749 0.7
4.39723 3.36881 0.7
4.37342 2.93416 0.7
4.53859 3.51019 0.7
   </Points>
   <Cells>
    <DataArray type="Int64" Name="connectivity" format="ascii">
0
1
2
3
4
5
6
7
    </DataArray>
    <DataArray type="Int64" Name="offsets" format="ascii">
1
2
3
4
5
6
7
8
    </DataArray>
    <DataArray type="Int64" Name="types" format="ascii">
1
1
1
1
1
1
1
1
    </DataArray>
   </Cells>
  </Piece>
 </UnstructuredGrid>
</VTKFile>