<?xml version="1.0"?>
<VTKFile type="UnstructuredGrid" version="0.1" byte_order="LittleEndian" compressor="vtkZLibDataCompressor">
 <UnstructuredGrid GhostLevel="0">
  <Piece NumberOfPoints="8" NumberOfCells="8">
   <PointData>
    <DataArray type="Float64" Name="radius"/>
0.1
0.1
0.1
0.1
0.1
0.1
0.1
0.1
    <DataArray type="Float64" Name="mass"/>
10.472
10.472
10.472
10.472
10.472
10.472
10.472
10.472
    <DataArray type="Float64" Name="particleIndex"/>
0
1
2
3
4
5
6
7
    <DataArray type="Float64" Name="clusterIndex"/>
0
1
2
3
4
5
6
7
    <DataArray type="Float64" Name="v" NumberOfComponents="3"/>
0.000256178 -0.000234952 0
0.000158084 -0.000241917 0
0.000196382 -0.000356691 0
-0.000275269 -0.000713336 0
0.0046742 -0.00273605 0
0.000795859 0.00048343 0
6.20991e-05 -0.000170968 0
0.000399721 0.000351928 0
    <DataArray type="Float64" Name="w" NumberOfComponents="3"/>
0 0 -0.00374955
0 0 0.00276891
0 0 0.00151196
0 0 0.00861084
0 0 -0.0564993
0 0 0.0411995
0 0 -0.01997
0 0 -0.00623554
    <DataArray type="Float64" Name="FParticle" NumberOfComponents="3"/>
68.6341 -52.6071 0
72.2948 -96.0827 0
-148.186 -406.991 0
-450.652 -127.544 0
250.732 -152.553 0
82.5862 632.495 0
88.7726 20.0126 0
35.8184 183.27 0
    <DataArray type="Float64" Name="FGrav" NumberOfComponents="3"/>
-102.73 0 0
-102.73 0 0
-102.73 0 0
-102.73 0 0
-102.73 0 0
-102.73 0 0
-102.73 0 0
-102.73 0 0
    <DataArray type="Float64" Name="MParticle" NumberOfComponents="3"/>
0 0 -1.13219
0 0 -0.56985
0 0 -4.82347
0 0 14.4757
0 0 -31.1552
0 0 -59.0934
0 0 -2.28854
0 0 -10.4327
    <DataArray type="Float64" Name="FWall" NumberOfComponents="3"/>
35.6212 55.6338 0
85.311 101.777 0
227.256 407.456 0
538.515 -49.3635 0
0 0 0
-463.196 -722.13 0
0 0 0
-2.3242 -165.147 0
    <DataArray type="Float64" Name="MWall" NumberOfComponents="3"/>
0 0 -0.841193
0 0 0
0 0 -11.8318
0 0 0
0 0 0
0 0 78.3701
0 0 0
0 0 9.25623
    <DataArray type="Float64" Name="FHydro" NumberOfComponents="3"/>
0 0 0
0 0 0
0 0 0
0 0 0
0 0 0
0 0 0
0 0 0
0 0 0
    <DataArray type="Float64" Name="FSpringP" NumberOfComponents="3"/>
8.00479 8.00682 0
-11.9785 -11.9858 0
46.2249 -16.0836 0
-198.938 47.809 0
515.911 -388.256 0
-273.7 266.893 0
-11.7834 19.8163 0
-73.7404 73.8001 0
    <DataArray type="Float64" Name="FSpringW" NumberOfComponents="3"/>
-6.44897 5.40104 0
0 0 0
-80.1513 80.4111 0
0 0 0
0 0 0
-654.909 -430.443 0
0 0 0
-77.3827 -50.7908 0
    <DataArray type="Float64" Name="MRolling" NumberOfComponents="3"/>
0 0 1.73911
0 0 -2.06077
0 0 -13.0713
0 0 -4.87961
0 0 -7.0196
0 0 -4.42856
0 0 0.580127
0 0 -1.96138
   </PointData>
   <CellData>
   </CellData>
   <Points>
    <DataArray type="Float64" Name="Points" NumberOfComponents="3"/>
4.48195 2.54975 0.7
4.34057 2.69109 0.7
4.1992 2.83228 0.7
4.1989 3.03177 0.7
4.25304 3.22354 0.7
4.39259 3.36586 0.7
4.37233 2.93229 0.7
4.53397 3.50712 0.7
   </Points>
   <Cells>
    <DataArray type="Int64" Name="connectivity" format="ascii">
0
1
2
3
4
5
6
7
    </DataArray>
    <DataArray type="Int64" Name="offsets" format="ascii">
1
2
3
4
5
6
7
8
    </DataArray>
    <DataArray type="Int64" Name="types" format="ascii">
1
1
1
1
1
1
1
1
    </DataArray>
   </Cells>
  </Piece>
 </UnstructuredGrid>
</VTKFile>