<?xml version="1.0"?>
<VTKFile type="UnstructuredGrid" version="0.1" byte_order="LittleEndian" compressor="vtkZLibDataCompressor">
 <UnstructuredGrid GhostLevel="0">
  <Piece NumberOfPoints="8" NumberOfCells="8">
   <PointData>
    <DataArray type="Float64" Name="radius"/>
0.1
0.1
0.1
0.1
0.1
0.1
0.1
0.1
    <DataArray type="Float64" Name="mass"/>
10.472
10.472
10.472
10.472
10.472
10.472
10.472
10.472
    <DataArray type="Float64" Name="particleIndex"/>
0
1
2
3
4
5
6
7
    <DataArray type="Float64" Name="clusterIndex"/>
0
1
2
3
4
5
6
7
    <DataArray type="Float64" Name="v" NumberOfComponents="3"/>
0.0119175 -0.0125501 0
0.0115019 -0.0122877 0
0.0187715 -0.00533635 0
-0.00086584 -0.00745651 0
0.00384051 -0.00875054 0
-0.00351263 -0.00198335 0
0.0063172 0.0101315 0
-0.00319679 -0.00227445 0
    <DataArray type="Float64" Name="w" NumberOfComponents="3"/>
0 0 -0.206608
0 0 -0.275345
0 0 0.279276
0 0 -0.0691366
0 0 0.0229581
0 0 0.0677281
0 0 0.101738
0 0 -0.0450232
    <DataArray type="Float64" Name="FParticle" NumberOfComponents="3"/>
60.436 -140.745 0
473.782 -461.059 0
-450.104 -296.149 0
-690.834 120.771 0
89.7485 31.9152 0
542.065 198.819 0
90.4187 3.92221 0
-115.513 542.527 0
    <DataArray type="Float64" Name="FGrav" NumberOfComponents="3"/>
-102.73 0 0
-102.73 0 0
-102.73 0 0
-102.73 0 0
-102.73 0 0
-102.73 0 0
-102.73 0 0
-102.73 0 0
    <DataArray type="Float64" Name="MParticle" NumberOfComponents="3"/>
0 0 5.68866
0 0 5.68866
0 0 -2.49138
0 0 25.8201
0 0 9.30487
0 0 -60.1214
0 0 0.412017
0 0 -46.5095
    <DataArray type="Float64" Name="FWall" NumberOfComponents="3"/>
-27.8662 224.407 0
303.248 286.59 0
0 0 0
1060.06 -77.1932 0
0 0 0
-608.833 -643.101 0
0 0 0
-71.2306 -445.122 0
    <DataArray type="Float64" Name="MWall" NumberOfComponents="3"/>
0 0 -18.2127
0 0 0
0 0 0
0 0 -7.61423
0 0 0
0 0 85.7739
0 0 0
0 0 29.6705
    <DataArray type="Float64" Name="FHydro" NumberOfComponents="3"/>
0 0 0
0 0 0
0 0 0
0 0 0
0 0 0
0 0 0
0 0 0
0 0 0
    <DataArray type="Float64" Name="FSpringP" NumberOfComponents="3"/>
-40.1968 -40.2531 0
40.1968 40.2531 0
15.2948 -19.6665 0
-205.259 103.298 0
321.749 -162.15 0
223.424 -242.848 0
-26.1093 -7.27827 0
-329.099 328.644 0
    <DataArray type="Float64" Name="FSpringW" NumberOfComponents="3"/>
-125.204 132.265 0
0 0 0
0 0 0
10.9561 75.3499 0
0 0 0
-726.114 -456.59 0
0 0 0
-251.426 -157.541 0
    <DataArray type="Float64" Name="MRolling" NumberOfComponents="3"/>
0 0 1.96956
0 0 13.0795
0 0 -8.57645
0 0 30.3126
0 0 -8.7275
0 0 7.11709
0 0 -0.0515021
0 0 8.29877
   </PointData>
   <CellData>
   </CellData>
   <Points>
    <DataArray type="Float64" Name="Points" NumberOfComponents="3"/>
4.49875 2.53389 0.7
4.35734 2.6751 0.7
4.2251 2.82408 0.7
4.1974 3.0213 0.7
4.26373 3.20902 0.7
4.38925 3.36362 0.7
4.38293 2.94683 0.7
4.53037 3.50493 0.7
   </Points>
   <Cells>
    <DataArray type="Int64" Name="connectivity" format="ascii">
0
1
2
3
4
5
6
7
    </DataArray>
    <DataArray type="Int64" Name="offsets" format="ascii">
1
2
3
4
5
6
7
8
    </DataArray>
    <DataArray type="Int64" Name="types" format="ascii">
1
1
1
1
1
1
1
1
    </DataArray>
   </Cells>
  </Piece>
 </UnstructuredGrid>
</VTKFile>