<?xml version="1.0"?>
<VTKFile type="UnstructuredGrid" version="0.1" byte_order="LittleEndian" compressor="vtkZLibDataCompressor">
 <UnstructuredGrid GhostLevel="0">
  <Piece NumberOfPoints="8" NumberOfCells="8">
   <PointData>
    <DataArray type="Float64" Name="radius"/>
0.1
0.1
0.1
0.1
0.1
0.1
0.1
0.1
    <DataArray type="Float64" Name="mass"/>
10.472
10.472
10.472
10.472
10.472
10.472
10.472
10.472
    <DataArray type="Float64" Name="particleIndex"/>
0
1
2
3
4
5
6
7
    <DataArray type="Float64" Name="clusterIndex"/>
0
1
2
3
4
5
6
7
    <DataArray type="Float64" Name="v" NumberOfComponents="3"/>
-0.000240056 0.000265944 0
0.00111867 0.00165371 0
-6.78248e-05 0.000287378 0
7.43636e-05 0.000349429 0
0.00147633 -0.000532663 0
-6.89058e-05 0.000194311 0
-0.000265535 -0.00027843 0
-3.24827e-06 -9.52205e-05 0
    <DataArray type="Float64" Name="w" NumberOfComponents="3"/>
0 0 0.00220218
0 0 -0.0220273
0 0 0.0349824
0 0 -0.0217473
0 0 -0.00408251
0 0 0.0318029
0 0 0.0122831
0 0 0.0086113
    <DataArray type="Float64" Name="FParticle" NumberOfComponents="3"/>
48.634 -102.135 0
87.4355 -23.958 0
-685.5 -68.1108 0
-155.12 -343.612 0
449.83 -216.649 0
95.9318 510.815 0
114.524 -6.58054 0
44.2642 250.231 0
    <DataArray type="Float64" Name="FGrav" NumberOfComponents="3"/>
-102.73 0 0
-102.73 0 0
-102.73 0 0
-102.73 0 0
-102.73 0 0
-102.73 0 0
-102.73 0 0
-102.73 0 0
    <DataArray type="Float64" Name="MParticle" NumberOfComponents="3"/>
0 0 3.68842
0 0 2.84985
0 0 48.2696
0 0 89.362
0 0 -2.99932
0 0 -57.5147
0 0 1.01675
0 0 -14.5666
    <DataArray type="Float64" Name="FWall" NumberOfComponents="3"/>
52.7261 92.7408 0
0 0 0
550.422 206.461 0
349.829 878.263 0
0 0 0
-381.441 -612.072 0
0 0 0
-73.7787 -250.996 0
    <DataArray type="Float64" Name="MWall" NumberOfComponents="3"/>
0 0 -1.75598
0 0 0
0 0 -24.3116
0 0 -90.0071
0 0 0
0 0 66.4497
0 0 0
0 0 20.4803
    <DataArray type="Float64" Name="FHydro" NumberOfComponents="3"/>
0 0 0
0 0 0
0 0 0
0 0 0
0 0 0
0 0 0
0 0 0
0 0 0
    <DataArray type="Float64" Name="FSpringP" NumberOfComponents="3"/>
-26.3113 -25.8489 0
32.2834 31.7357 0
-495.272 -2.51863 0
109.749 125.307 0
689.252 -419.009 0
-205.183 196.125 0
-1.52997 -8.80579 0
-102.989 103.014 0
    <DataArray type="Float64" Name="FSpringW" NumberOfComponents="3"/>
-13.6284 11.073 0
0 0 0
16.398 242.562 0
61.3669 897.976 0
0 0 0
-543.01 -383.009 0
0 0 0
-167.475 -117.884 0
    <DataArray type="Float64" Name="MRolling" NumberOfComponents="3"/>
0 0 1.56982
0 0 1.46131
0 0 10.9396
0 0 -9.75587
0 0 0.263105
0 0 9.86597
0 0 -0.669928
0 0 -4.29673
   </PointData>
   <CellData>
   </CellData>
   <Points>
    <DataArray type="Float64" Name="Points" NumberOfComponents="3"/>
4.47964 2.55163 0.7
4.33955 2.69422 0.7
4.19927 2.83653 0.7
4.19939 3.03637 0.7
4.25919 3.22648 0.7
4.39804 3.36952 0.7
4.37251 2.93635 0.7
4.53934 3.51078 0.7
   </Points>
   <Cells>
    <DataArray type="Int64" Name="connectivity" format="ascii">
0
1
2
3
4
5
6
7
    </DataArray>
    <DataArray type="Int64" Name="offsets" format="ascii">
1
2
3
4
5
6
7
8
    </DataArray>
    <DataArray type="Int64" Name="types" format="ascii">
1
1
1
1
1
1
1
1
    </DataArray>
   </Cells>
  </Piece>
 </UnstructuredGrid>
</VTKFile>