<?xml version="1.0"?>
<VTKFile type="UnstructuredGrid" version="0.1" byte_order="LittleEndian" compressor="vtkZLibDataCompressor">
 <UnstructuredGrid GhostLevel="0">
  <Piece NumberOfPoints="8" NumberOfCells="8">
   <PointData>
    <DataArray type="Float64" Name="radius"/>
0.1
0.1
0.1
0.1
0.1
0.1
0.1
0.1
    <DataArray type="Float64" Name="mass"/>
10.472
10.472
10.472
10.472
10.472
10.472
10.472
10.472
    <DataArray type="Float64" Name="particleIndex"/>
0
1
2
3
4
5
6
7
    <DataArray type="Float64" Name="clusterIndex"/>
0
1
2
3
4
5
6
7
    <DataArray type="Float64" Name="v" NumberOfComponents="3"/>
-0.000225093 0.000191004 0
0.000497715 0.000761345 0
-0.000144742 4.87173e-05 0
8.78426e-05 0.000177912 0
0.00091192 0.000517052 0
0.00117605 0.000467247 0
-5.01465e-05 -0.000548112 0
0.000601048 0.000605769 0
    <DataArray type="Float64" Name="w" NumberOfComponents="3"/>
0 0 -0.0215363
0 0 0.00925668
0 0 -0.00276202
0 0 0.002312
0 0 -0.00634083
0 0 -0.000957696
0 0 -0.00638619
0 0 0.00659059
    <DataArray type="Float64" Name="FParticle" NumberOfComponents="3"/>
58.3055 -135.763 0
97.0311 -3.4363 0
-214.538 85.0044 0
-90.7537 -49.3369 0
-81.4042 65.6674 0
62.4557 -11.2676 0
119.145 -0.633618 0
49.7586 49.7653 0
    <DataArray type="Float64" Name="FGrav" NumberOfComponents="3"/>
-102.73 0 0
-102.73 0 0
-102.73 0 0
-102.73 0 0
-102.73 0 0
-102.73 0 0
-102.73 0 0
-102.73 0 0
    <DataArray type="Float64" Name="MParticle" NumberOfComponents="3"/>
0 0 5.46909
0 0 4.04386
0 0 0.512464
0 0 -2.02651
0 0 5.21205
0 0 5.21205
0 0 0.117539
0 0 0
    <DataArray type="Float64" Name="FWall" NumberOfComponents="3"/>
75.2112 92.216 0
0 0 0
319.845 -79.6683 0
233.916 46.9111 0
59.7632 -85.3734 0
28.8052 -41.1945 0
0 0 0
46.6241 -33.692 0
    <DataArray type="Float64" Name="MWall" NumberOfComponents="3"/>
0 0 0
0 0 0
0 0 5.70408
0 0 -6.32472
0 0 0
0 0 0
0 0 0
0 0 -1.89209
    <DataArray type="Float64" Name="FHydro" NumberOfComponents="3"/>
0 0 0
0 0 0
0 0 0
0 0 0
0 0 0
0 0 0
0 0 0
0 0 0
    <DataArray type="Float64" Name="FSpringP" NumberOfComponents="3"/>
-38.6947 -38.6499 0
48.9092 48.5893 0
-19.384 7.73658 0
-10.6526 -16.6539 0
-36.853 36.8565 0
36.853 -36.8565 0
19.8222 -1.02212 0
0 0 0
    <DataArray type="Float64" Name="FSpringW" NumberOfComponents="3"/>
0 0 0
0 0 0
-4.00039 -56.9003 0
4.44844 63.0905 0
0 0 0
0 0 0
0 0 0
15.5098 10.8373 0
    <DataArray type="Float64" Name="MRolling" NumberOfComponents="3"/>
0 0 3.06625
0 0 -1.72676
0 0 8.03714
0 0 -5.64355
0 0 3.16024
0 0 0.824341
0 0 -0.00409661
0 0 -1.43832
   </PointData>
   <CellData>
   </CellData>
   <Points>
    <DataArray type="Float64" Name="Points" NumberOfComponents="3"/>
4.47992 2.55139 0.7
4.33868 2.6928 0.7
4.19935 2.83598 0.7
4.19939 3.03594 0.7
4.25609 3.22762 0.7
4.39744 3.36896 0.7
4.37252 2.93593 0.7
4.5388 3.51034 0.7
   </Points>
   <Cells>
    <DataArray type="Int64" Name="connectivity" format="ascii">
0
1
2
3
4
5
6
7
    </DataArray>
    <DataArray type="Int64" Name="offsets" format="ascii">
1
2
3
4
5
6
7
8
    </DataArray>
    <DataArray type="Int64" Name="types" format="ascii">
1
1
1
1
1
1
1
1
    </DataArray>
   </Cells>
  </Piece>
 </UnstructuredGrid>
</VTKFile>