<?xml version="1.0"?>
<VTKFile type="UnstructuredGrid" version="0.1" byte_order="LittleEndian" compressor="vtkZLibDataCompressor">
 <UnstructuredGrid GhostLevel="0">
  <Piece NumberOfPoints="8" NumberOfCells="8">
   <PointData>
    <DataArray type="Float64" Name="radius"/>
0.1
0.1
0.1
0.1
0.1
0.1
0.1
0.1
    <DataArray type="Float64" Name="mass"/>
10.472
10.472
10.472
10.472
10.472
10.472
10.472
10.472
    <DataArray type="Float64" Name="particleIndex"/>
0
1
2
3
4
5
6
7
    <DataArray type="Float64" Name="clusterIndex"/>
0
1
2
3
4
5
6
7
    <DataArray type="Float64" Name="v" NumberOfComponents="3"/>
0.000803259 -0.000806254 0
0.00128965 -0.000952229 0
0.00658928 0.00343108 0
0.000101517 0.00278304 0
0.00184535 0.00144512 0
0.00153042 0.000998979 0
0.00349064 0.00922186 0
0.00110577 0.00091359 0
    <DataArray type="Float64" Name="w" NumberOfComponents="3"/>
0 0 -0.00889959
0 0 0.00454938
0 0 -0.0183901
0 0 -0.0185012
0 0 -0.0239122
0 0 -0.00589585
0 0 0.0855082
0 0 0.0112455
    <DataArray type="Float64" Name="FParticle" NumberOfComponents="3"/>
78.0869 -118.24 0
-139.449 -725.974 0
680.565 218.71 0
-1071.56 252.071 0
309.34 -80.638 0
-28.8482 366.881 0
102.64 15.0442 0
69.2253 72.1461 0
    <DataArray type="Float64" Name="FGrav" NumberOfComponents="3"/>
-102.73 0 0
-102.73 0 0
-102.73 0 0
-102.73 0 0
-102.73 0 0
-102.73 0 0
-102.73 0 0
-102.73 0 0
    <DataArray type="Float64" Name="MParticle" NumberOfComponents="3"/>
0 0 2.84903
0 0 65.2917
0 0 -2.39908
0 0 -43.9306
0 0 -4.86804
0 0 -28.3709
0 0 -2.4232
0 0 -0.210117
    <DataArray type="Float64" Name="FWall" NumberOfComponents="3"/>
29.3514 111.001 0
-266.43 735.342 0
0 0 0
690.048 -457.742 0
11.889 -50.7246 0
-81.8593 -350.549 0
0 0 0
32.0773 -64.4128 0
    <DataArray type="Float64" Name="MWall" NumberOfComponents="3"/>
0 0 -4.79074
0 0 -67.3358
0 0 0
0 0 40.9385
0 0 1.93492
0 0 26.765
0 0 0
0 0 1.05012
    <DataArray type="Float64" Name="FHydro" NumberOfComponents="3"/>
0 0 0
0 0 0
0 0 0
0 0 0
0 0 0
0 0 0
0 0 0
0 0 0
    <DataArray type="Float64" Name="FSpringP" NumberOfComponents="3"/>
-20.1315 -20.1599 0
-433.716 -408.711 0
1102.09 438.785 0
-883.03 35.3569 0
422.537 -265.42 0
-197.806 197.476 0
11.547 21.1872 0
-1.48522 1.48629 0
    <DataArray type="Float64" Name="FSpringW" NumberOfComponents="3"/>
-36.981 30.4554 0
-519.538 428.359 0
0 0 0
-28.051 -408.422 0
-15.8514 -11.0961 0
-219.547 -153.087 0
0 0 0
-8.61629 -6.00288 0
    <DataArray type="Float64" Name="MRolling" NumberOfComponents="3"/>
0 0 1.39284
0 0 11.5087
0 0 0.429773
0 0 -19.3744
0 0 4.87993
0 0 -7.01044
0 0 -0.52482
0 0 -0.923934
   </PointData>
   <CellData>
   </CellData>
   <Points>
    <DataArray type="Float64" Name="Points" NumberOfComponents="3"/>
4.48066 2.55079 0.7
4.33923 2.69202 0.7
4.20227 2.83696 0.7
4.19916 3.03632 0.7
4.2561 3.22759 0.7
4.39717 3.36889 0.7
4.37401 2.93933 0.7
4.53857 3.51019 0.7
   </Points>
   <Cells>
    <DataArray type="Int64" Name="connectivity" format="ascii">
0
1
2
3
4
5
6
7
    </DataArray>
    <DataArray type="Int64" Name="offsets" format="ascii">
1
2
3
4
5
6
7
8
    </DataArray>
    <DataArray type="Int64" Name="types" format="ascii">
1
1
1
1
1
1
1
1
    </DataArray>
   </Cells>
  </Piece>
 </UnstructuredGrid>
</VTKFile>