<?xml version="1.0"?>
<VTKFile type="UnstructuredGrid" version="0.1" byte_order="LittleEndian" compressor="vtkZLibDataCompressor">
 <UnstructuredGrid GhostLevel="0">
  <Piece NumberOfPoints="8" NumberOfCells="8">
   <PointData>
    <DataArray type="Float64" Name="radius"/>
0.1
0.1
0.1
0.1
0.1
0.1
0.1
0.1
    <DataArray type="Float64" Name="mass"/>
10.472
10.472
10.472
10.472
10.472
10.472
10.472
10.472
    <DataArray type="Float64" Name="particleIndex"/>
0
1
2
3
4
5
6
7
    <DataArray type="Float64" Name="clusterIndex"/>
0
1
2
3
4
5
6
7
    <DataArray type="Float64" Name="v" NumberOfComponents="3"/>
0.165295 -0.145981 0
0.157293 -0.131259 0
-0.138271 -0.280894 0
-0.00872049 -0.0733327 0
-0.130154 -0.00549592 0
-0.00499812 -0.00381918 0
-0.0709899 -0.17244 0
0.0339476 0.0255685 0
    <DataArray type="Float64" Name="w" NumberOfComponents="3"/>
0 0 -1.43658
0 0 -0.365539
0 0 0.482237
0 0 -0.732235
0 0 0.217187
0 0 -0.0290069
0 0 -0.412391
0 0 0.441168
    <DataArray type="Float64" Name="FParticle" NumberOfComponents="3"/>
0 0 0
0 0 0
0 0 0
-101.672 26.7185 0
0 0 0
0 0 0
101.672 -26.7185 0
0 0 0
    <DataArray type="Float64" Name="FGrav" NumberOfComponents="3"/>
-102.73 0 0
-102.73 0 0
-102.73 0 0
-102.73 0 0
-102.73 0 0
-102.73 0 0
-102.73 0 0
-102.73 0 0
    <DataArray type="Float64" Name="MParticle" NumberOfComponents="3"/>
0 0 0
0 0 0
0 0 0
0 0 -2.67456
0 0 0
0 0 0
0 0 -2.67456
0 0 0
    <DataArray type="Float64" Name="FWall" NumberOfComponents="3"/>
23.3033 65.8052 0
20.1393 57.1963 0
0 0 0
218.072 -3.27911 0
0 0 0
36.5411 -49.1446 0
0 0 0
49.4032 -40.009 0
    <DataArray type="Float64" Name="MWall" NumberOfComponents="3"/>
0 0 -2.59266
0 0 -2.25205
0 0 0
0 0 -1.27013
0 0 0
0 0 0
0 0 0
0 0 -1.5442
    <DataArray type="Float64" Name="FHydro" NumberOfComponents="3"/>
0 0 0
0 0 0
0 0 0
0 0 0
0 0 0
0 0 0
0 0 0
0 0 0
    <DataArray type="Float64" Name="FSpringP" NumberOfComponents="3"/>
0 0 0
0 0 0
0 0 0
-13.1552 -23.2866 0
0 0 0
0 0 0
13.1552 23.2866 0
0 0 0
    <DataArray type="Float64" Name="FSpringW" NumberOfComponents="3"/>
-19.4772 17.1122 0
-16.945 14.8337 0
0 0 0
0.93025 12.6672 0
0 0 0
0 0 0
0 0 0
12.3423 9.28024 0
    <DataArray type="Float64" Name="MRolling" NumberOfComponents="3"/>
0 0 1.29633
0 0 1.12603
0 0 0
0 0 4.86285
0 0 0
0 0 1.22482
0 0 -0.508324
0 0 -1.23336
   </PointData>
   <CellData>
   </CellData>
   <Points>
    <DataArray type="Float64" Name="Points" NumberOfComponents="3"/>
4.48554 2.54667 0.7
4.34384 2.68832 0.7
4.20081 2.83205 0.7
4.19936 3.03536 0.7
4.26308 3.22649 0.7
4.40216 3.37237 0.7
4.37343 2.93702 0.7
4.54444 3.51443 0.7
   </Points>
   <Cells>
    <DataArray type="Int64" Name="connectivity" format="ascii">
0
1
2
3
4
5
6
7
    </DataArray>
    <DataArray type="Int64" Name="offsets" format="ascii">
1
2
3
4
5
6
7
8
    </DataArray>
    <DataArray type="Int64" Name="types" format="ascii">
1
1
1
1
1
1
1
1
    </DataArray>
   </Cells>
  </Piece>
 </UnstructuredGrid>
</VTKFile>