<?xml version="1.0"?>
<VTKFile type="UnstructuredGrid" version="0.1" byte_order="LittleEndian" compressor="vtkZLibDataCompressor">
 <UnstructuredGrid GhostLevel="0">
  <Piece NumberOfPoints="8" NumberOfCells="8">
   <PointData>
    <DataArray type="Float64" Name="radius"/>
0.1
0.1
0.1
0.1
0.1
0.1
0.1
0.1
    <DataArray type="Float64" Name="mass"/>
10.472
10.472
10.472
10.472
10.472
10.472
10.472
10.472
    <DataArray type="Float64" Name="particleIndex"/>
0
1
2
3
4
5
6
7
    <DataArray type="Float64" Name="clusterIndex"/>
0
1
2
3
4
5
6
7
    <DataArray type="Float64" Name="v" NumberOfComponents="3"/>
0.000520986 -0.000684159 0
-0.000818237 -0.000972683 0
-0.000204001 -0.000495602 0
-0.00082793 3.35821e-05 0
-0.00134826 -0.000310243 0
-0.000519843 -0.000894054 0
-0.0203718 0.0619991 0
-0.000608497 -0.000614703 0
    <DataArray type="Float64" Name="w" NumberOfComponents="3"/>
0 0 0.00906484
0 0 0.0063649
0 0 -0.0256713
0 0 0.0114892
0 0 -0.0171615
0 0 -0.00225883
0 0 0.555129
0 0 0.00156468
    <DataArray type="Float64" Name="FParticle" NumberOfComponents="3"/>
50.7631 -101.096 0
83.1956 -15.336 0
-201.495 -23.3101 0
-27.3398 -33.0315 0
4.64708 96.9347 0
26.1592 48.2229 0
0 0 0
64.0694 27.6159 0
    <DataArray type="Float64" Name="FGrav" NumberOfComponents="3"/>
-102.73 0 0
-102.73 0 0
-102.73 0 0
-102.73 0 0
-102.73 0 0
-102.73 0 0
-102.73 0 0
-102.73 0 0
    <DataArray type="Float64" Name="MParticle" NumberOfComponents="3"/>
0 0 3.55352
0 0 2.07554
0 0 5.27115
0 0 10.9732
0 0 5.24151
0 0 3.5947
0 0 0
0 0 2.57723
    <DataArray type="Float64" Name="FWall" NumberOfComponents="3"/>
48.0099 116.017 0
0 0 0
286.364 9.97878 0
144.258 26.7472 0
99.1901 -102.052 0
86.8534 -51.1462 0
0 0 0
39.511 -26.9783 0
    <DataArray type="Float64" Name="MWall" NumberOfComponents="3"/>
0 0 -3.61895
0 0 0
0 0 -3.01242
0 0 -3.69391
0 0 -2.2943
0 0 -4.20108
0 0 0
0 0 -1.70032
    <DataArray type="Float64" Name="FHydro" NumberOfComponents="3"/>
0 0 0
0 0 0
0 0 0
0 0 0
0 0 0
0 0 0
0 0 0
0 0 0
    <DataArray type="Float64" Name="FSpringP" NumberOfComponents="3"/>
-25.1402 -25.1142 0
35.731 35.4231 0
-78.0821 -10.2875 0
26.9691 11.9034 0
33.3277 -4.73035 0
-11.028 11.0303 0
0 0 0
18.2226 -18.2249 0
    <DataArray type="Float64" Name="FSpringW" NumberOfComponents="3"/>
-28.0318 22.8889 0
0 0 0
2.12181 30.0493 0
2.62711 36.8456 0
18.8149 13.1294 0
34.4659 24.0209 0
0 0 0
13.9526 9.71781 0
    <DataArray type="Float64" Name="MRolling" NumberOfComponents="3"/>
0 0 -2.94158
0 0 -0.347354
0 0 7.28216
0 0 1.17835
0 0 4.35883
0 0 1.56946
0 0 0
0 0 -1.21856
   </PointData>
   <CellData>
   </CellData>
   <Points>
    <DataArray type="Float64" Name="Points" NumberOfComponents="3"/>
4.48001 2.55132 0.7
4.33874 2.69273 0.7
4.19936 2.83592 0.7
4.19943 3.03578 0.7
4.25583 3.22746 0.7
4.39717 3.3688 0.7
4.39353 2.88873 0.7
4.53856 3.51017 0.7
   </Points>
   <Cells>
    <DataArray type="Int64" Name="connectivity" format="ascii">
0
1
2
3
4
5
6
7
    </DataArray>
    <DataArray type="Int64" Name="offsets" format="ascii">
1
2
3
4
5
6
7
8
    </DataArray>
    <DataArray type="Int64" Name="types" format="ascii">
1
1
1
1
1
1
1
1
    </DataArray>
   </Cells>
  </Piece>
 </UnstructuredGrid>
</VTKFile>