<?xml version="1.0"?>
<VTKFile type="UnstructuredGrid" version="0.1" byte_order="LittleEndian" compressor="vtkZLibDataCompressor">
 <UnstructuredGrid GhostLevel="0">
  <Piece NumberOfPoints="8" NumberOfCells="8">
   <PointData>
    <DataArray type="Float64" Name="radius"/>
0.1
0.1
0.1
0.1
0.1
0.1
0.1
0.1
    <DataArray type="Float64" Name="mass"/>
10.472
10.472
10.472
10.472
10.472
10.472
10.472
10.472
    <DataArray type="Float64" Name="particleIndex"/>
0
1
2
3
4
5
6
7
    <DataArray type="Float64" Name="clusterIndex"/>
0
1
2
3
4
5
6
7
    <DataArray type="Float64" Name="v" NumberOfComponents="3"/>
0.000246725 -0.000141392 0
-8.21402e-05 -0.000302244 0
0.000592484 0.00017103 0
-0.000534684 -0.000264251 0
0.000173201 -0.000114044 0
4.34711e-06 1.25006e-05 0
0.000263588 0.00107331 0
7.42174e-06 7.68294e-06 0
    <DataArray type="Float64" Name="w" NumberOfComponents="3"/>
0 0 -0.00985399
0 0 0.0203563
0 0 0.0276689
0 0 -0.0068706
0 0 0.00374276
0 0 0.000880741
0 0 -0.0105498
0 0 0.000518784
    <DataArray type="Float64" Name="FParticle" NumberOfComponents="3"/>
89.7126 9.58774 0
-148.985 -390.931 0
115.128 94.5607 0
-282.673 56.1351 0
-1.70156 61.1401 0
63.345 123.468 0
110.566 -22.3068 0
54.6076 68.3466 0
    <DataArray type="Float64" Name="FGrav" NumberOfComponents="3"/>
-102.73 0 0
-102.73 0 0
-102.73 0 0
-102.73 0 0
-102.73 0 0
-102.73 0 0
-102.73 0 0
-102.73 0 0
    <DataArray type="Float64" Name="MParticle" NumberOfComponents="3"/>
0 0 -7.01842
0 0 23.7902
0 0 21.7238
0 0 -7.25455
0 0 -1.20962
0 0 -6.18935
0 0 2.05595
0 0 -0.971764
    <DataArray type="Float64" Name="FWall" NumberOfComponents="3"/>
59.332 2.07422 0
45.0298 309.183 0
98.2267 79.873 0
415.532 -37.9242 0
94.6357 -56.0656 0
42.2867 -114.063 0
0 0 0
45.0753 -59.8414 0
    <DataArray type="Float64" Name="MWall" NumberOfComponents="3"/>
0 0 4.46463
0 0 -16.0724
0 0 -8.6541
0 0 0.818754
0 0 -4.56181
0 0 3.03526
0 0 0
0 0 -0.290612
    <DataArray type="Float64" Name="FHydro" NumberOfComponents="3"/>
0 0 0
0 0 0
0 0 0
0 0 0
0 0 0
0 0 0
0 0 0
0 0 0
    <DataArray type="Float64" Name="FSpringP" NumberOfComponents="3"/>
49.5999 49.6555 0
-270.716 -264.189 0
322.543 232.963 0
-150.768 10.6904 0
75.3508 -48.2043 0
-30.0315 30.0135 0
10.8929 -17.8015 0
-6.8712 6.87162 0
    <DataArray type="Float64" Name="FSpringW" NumberOfComponents="3"/>
34.5826 -28.237 0
-124.474 101.678 0
6.04671 86.3295 0
-0.584021 -8.16668 0
37.4347 26.0703 0
-24.9271 -17.3182 0
0 0 0
2.38735 1.65713 0
    <DataArray type="Float64" Name="MRolling" NumberOfComponents="3"/>
0 0 1.06612
0 0 -6.8043
0 0 4.13931
0 0 -11.4253
0 0 -1.71964
0 0 -1.69549
0 0 0.575229
0 0 -1.06253
   </PointData>
   <CellData>
   </CellData>
   <Points>
    <DataArray type="Float64" Name="Points" NumberOfComponents="3"/>
4.48003 2.55135 0.7
4.33857 2.69265 0.7
4.19946 2.83603 0.7
4.19928 3.03575 0.7
4.25569 3.22734 0.7
4.39692 3.36864 0.7
4.37259 2.93605 0.7
4.53829 3.51 0.7
   </Points>
   <Cells>
    <DataArray type="Int64" Name="connectivity" format="ascii">
0
1
2
3
4
5
6
7
    </DataArray>
    <DataArray type="Int64" Name="offsets" format="ascii">
1
2
3
4
5
6
7
8
    </DataArray>
    <DataArray type="Int64" Name="types" format="ascii">
1
1
1
1
1
1
1
1
    </DataArray>
   </Cells>
  </Piece>
 </UnstructuredGrid>
</VTKFile>