<?xml version="1.0"?>
<VTKFile type="UnstructuredGrid" version="0.1" byte_order="LittleEndian" compressor="vtkZLibDataCompressor">
 <UnstructuredGrid GhostLevel="0">
  <Piece NumberOfPoints="8" NumberOfCells="8">
   <PointData>
    <DataArray type="Float64" Name="radius"/>
0.1
0.1
0.1
0.1
0.1
0.1
0.1
0.1
    <DataArray type="Float64" Name="mass"/>
10.472
10.472
10.472
10.472
10.472
10.472
10.472
10.472
    <DataArray type="Float64" Name="particleIndex"/>
0
1
2
3
4
5
6
7
    <DataArray type="Float64" Name="clusterIndex"/>
0
1
2
3
4
5
6
7
    <DataArray type="Float64" Name="v" NumberOfComponents="3"/>
-0.0049179 0.00273415 0
-0.00183785 0.00235056 0
0.0032179 0.00507542 0
-9.72288e-05 0.00336027 0
0.00155975 0.00136283 0
0.0010284 0.00100978 0
0.00198761 0.00782518 0
0.00119115 0.000843916 0
    <DataArray type="Float64" Name="w" NumberOfComponents="3"/>
0 0 0.000342131
0 0 0.0255871
0 0 -0.0390464
0 0 -0.0436302
0 0 -0.00642123
0 0 0.0248636
0 0 0.0715912
0 0 0.0152578
    <DataArray type="Float64" Name="FParticle" NumberOfComponents="3"/>
-42.52 -443.834 0
42.8008 -647.788 0
832.46 261.347 0
-1400.91 329.214 0
370.04 -119.315 0
35.2349 456.408 0
100.629 13.4245 0
62.268 150.543 0
    <DataArray type="Float64" Name="FGrav" NumberOfComponents="3"/>
-102.73 0 0
-102.73 0 0
-102.73 0 0
-102.73 0 0
-102.73 0 0
-102.73 0 0
-102.73 0 0
-102.73 0 0
    <DataArray type="Float64" Name="MParticle" NumberOfComponents="3"/>
0 0 34.3934
0 0 108.823
0 0 -10.5405
0 0 -56.6131
0 0 -5.23169
0 0 -42.2184
0 0 -2.6877
0 0 -6.24589
    <DataArray type="Float64" Name="FWall" NumberOfComponents="3"/>
162.54 197.806 0
-453.02 810.63 0
0 0 0
872.439 -593.398 0
12.8338 -52.3641 0
-251.159 -497.497 0
0 0 0
-23.3793 -155.384 0
    <DataArray type="Float64" Name="MWall" NumberOfComponents="3"/>
0 0 0
0 0 -86.5088
0 0 0
0 0 53.4823
0 0 1.96372
0 0 49.0994
0 0 0
0 0 10.8158
    <DataArray type="Float64" Name="FHydro" NumberOfComponents="3"/>
0 0 0
0 0 0
0 0 0
0 0 0
0 0 0
0 0 0
0 0 0
0 0 0
    <DataArray type="Float64" Name="FSpringP" NumberOfComponents="3"/>
-243.172 -243.224 0
-301.16 -264.393 0
1393.11 524.357 0
-1154.55 48.1853 0
549.025 -342.582 0
-210.47 209.928 0
11.3764 23.5532 0
-44.1537 44.1765 0
    <DataArray type="Float64" Name="FSpringW" NumberOfComponents="3"/>
0 0 0
-667.682 550.07 0
0 0 0
-35.1228 -533.668 0
-16.0599 -11.3003 0
-402.302 -281.476 0
0 0 0
-88.6618 -61.9447 0
    <DataArray type="Float64" Name="MRolling" NumberOfComponents="3"/>
0 0 6.53908
0 0 -12.1633
0 0 8.32363
0 0 -25.016
0 0 1.5196
0 0 8.51771
0 0 -0.513278
0 0 -3.03203
   </PointData>
   <CellData>
   </CellData>
   <Points>
    <DataArray type="Float64" Name="Points" NumberOfComponents="3"/>
4.48045 2.55087 0.7
4.33919 2.6921 0.7
4.20334 2.83777 0.7
4.19911 3.0369 0.7
4.2565 3.22787 0.7
4.39742 3.36908 0.7
4.37457 2.94102 0.7
4.53878 3.51036 0.7
   </Points>
   <Cells>
    <DataArray type="Int64" Name="connectivity" format="ascii">
0
1
2
3
4
5
6
7
    </DataArray>
    <DataArray type="Int64" Name="offsets" format="ascii">
1
2
3
4
5
6
7
8
    </DataArray>
    <DataArray type="Int64" Name="types" format="ascii">
1
1
1
1
1
1
1
1
    </DataArray>
   </Cells>
  </Piece>
 </UnstructuredGrid>
</VTKFile>