<?xml version="1.0"?>
<VTKFile type="UnstructuredGrid" version="0.1" byte_order="LittleEndian" compressor="vtkZLibDataCompressor">
 <UnstructuredGrid GhostLevel="0">
  <Piece NumberOfPoints="8" NumberOfCells="8">
   <PointData>
    <DataArray type="Float64" Name="radius"/>
0.1
0.1
0.1
0.1
0.1
0.1
0.1
0.1
    <DataArray type="Float64" Name="mass"/>
10.472
10.472
10.472
10.472
10.472
10.472
10.472
10.472
    <DataArray type="Float64" Name="particleIndex"/>
0
1
2
3
4
5
6
7
    <DataArray type="Float64" Name="clusterIndex"/>
0
1
2
3
4
5
6
7
    <DataArray type="Float64" Name="v" NumberOfComponents="3"/>
0.000592915 -0.000461827 0
0.00184925 0.0011345 0
-8.95123e-05 -0.000329404 0
-6.18019e-05 -0.00120993 0
0.00352951 -0.00298381 0
-0.000221732 -4.7538e-05 0
0.000599533 -0.000822039 0
-0.0002686 -9.6517e-05 0
    <DataArray type="Float64" Name="w" NumberOfComponents="3"/>
0 0 -0.0386588
0 0 0.0210043
0 0 0.0068557
0 0 -0.0709385
0 0 0.0382766
0 0 0.0232232
0 0 0.0927521
0 0 -0.00839645
    <DataArray type="Float64" Name="FParticle" NumberOfComponents="3"/>
88.5455 -129.477 0
107.577 2.27648 0
-258.4 30.6237 0
-161.997 -355.974 0
-142.73 140.667 0
192.38 198.221 0
95.0169 34.0767 0
79.6071 79.586 0
    <DataArray type="Float64" Name="FGrav" NumberOfComponents="3"/>
-102.73 0 0
-102.73 0 0
-102.73 0 0
-102.73 0 0
-102.73 0 0
-102.73 0 0
-102.73 0 0
-102.73 0 0
    <DataArray type="Float64" Name="MParticle" NumberOfComponents="3"/>
0 0 2.81756
0 0 -2.27413
0 0 -6.56503
0 0 1.41667
0 0 0
0 0 0
0 0 -2.89002
0 0 0
    <DataArray type="Float64" Name="FWall" NumberOfComponents="3"/>
-34.6787 185.831 0
0 0 0
362.354 -26.5472 0
394.882 -27.6832 0
0 0 0
118.517 -168.464 0
0 0 0
34.883 -109.884 0
    <DataArray type="Float64" Name="MWall" NumberOfComponents="3"/>
0 0 -14.4262
0 0 0
0 0 0.121728
0 0 0
0 0 0
0 0 0
0 0 0
0 0 3.46359
    <DataArray type="Float64" Name="FHydro" NumberOfComponents="3"/>
0 0 0
0 0 0
0 0 0
0 0 0
0 0 0
0 0 0
0 0 0
0 0 0
    <DataArray type="Float64" Name="FSpringP" NumberOfComponents="3"/>
-20.022 -19.8237 0
56.3679 55.4818 0
-36.0596 -60.6859 0
14.1667 0.00119055 0
0 0 0
0 0 0
-14.453 25.0266 0
0 0 0
    <DataArray type="Float64" Name="FSpringW" NumberOfComponents="3"/>
-111.842 91.1206 0
0 0 0
-0.0848756 -1.21432 0
0 0 0
0 0 0
0 0 0
0 0 0
-28.3389 -19.9136 0
    <DataArray type="Float64" Name="MRolling" NumberOfComponents="3"/>
0 0 3.21483
0 0 0.369204
0 0 -8.22302
0 0 10.5548
0 0 -0.245986
0 0 -6.62629
0 0 -0.632056
0 0 2.76208
   </PointData>
   <CellData>
   </CellData>
   <Points>
    <DataArray type="Float64" Name="Points" NumberOfComponents="3"/>
4.47984 2.55145 0.7
4.33924 2.69347 0.7
4.19933 2.83607 0.7
4.19932 3.03603 0.7
4.25821 3.22671 0.7
4.39786 3.36935 0.7
4.37246 2.93605 0.7
4.53922 3.51067 0.7
   </Points>
   <Cells>
    <DataArray type="Int64" Name="connectivity" format="ascii">
0
1
2
3
4
5
6
7
    </DataArray>
    <DataArray type="Int64" Name="offsets" format="ascii">
1
2
3
4
5
6
7
8
    </DataArray>
    <DataArray type="Int64" Name="types" format="ascii">
1
1
1
1
1
1
1
1
    </DataArray>
   </Cells>
  </Piece>
 </UnstructuredGrid>
</VTKFile>