<?xml version="1.0"?>
<VTKFile type="UnstructuredGrid" version="0.1" byte_order="LittleEndian" compressor="vtkZLibDataCompressor">
 <UnstructuredGrid GhostLevel="0">
  <Piece NumberOfPoints="8" NumberOfCells="8">
   <PointData>
    <DataArray type="Float64" Name="radius"/>
0.1
0.1
0.1
0.1
0.1
0.1
0.1
0.1
    <DataArray type="Float64" Name="mass"/>
10.472
10.472
10.472
10.472
10.472
10.472
10.472
10.472
    <DataArray type="Float64" Name="particleIndex"/>
0
1
2
3
4
5
6
7
    <DataArray type="Float64" Name="clusterIndex"/>
0
1
2
3
4
5
6
7
    <DataArray type="Float64" Name="v" NumberOfComponents="3"/>
-0.144604 0.118742 0
-0.4159 -0.414386 0
-0.00335723 -0.0455998 0
-1.59713e-05 0.000344118 0
-0.0766559 -0.22223 0
-0.911689 -0.947791 0
0.0629457 -0.998218 0
-0.516878 -1.0688 0
    <DataArray type="Float64" Name="w" NumberOfComponents="3"/>
0 0 0.583741
0 0 -1.543
0 0 -0.461719
0 0 0.00361158
0 0 -2.03575
0 0 0.580476
0 0 -14.7457
0 0 -5.29727
    <DataArray type="Float64" Name="FParticle" NumberOfComponents="3"/>
0 0 0
50.0183 -24.4764 0
-50.0183 24.4764 0
0 0 0
0 0 0
-1357.24 -508.706 0
0 0 0
1357.24 508.706 0
    <DataArray type="Float64" Name="FGrav" NumberOfComponents="3"/>
-102.73 0 0
-102.73 0 0
-102.73 0 0
-102.73 0 0
-102.73 0 0
-102.73 0 0
-102.73 0 0
-102.73 0 0
    <DataArray type="Float64" Name="MParticle" NumberOfComponents="3"/>
0 0 0
0 0 -2.06812
0 0 -2.06812
0 0 0
0 0 0
0 0 53.4708
0 0 0
0 0 53.4708
    <DataArray type="Float64" Name="FWall" NumberOfComponents="3"/>
47.3136 26.8411 0
0 0 0
161.247 -3.71001 0
102.541 4.07761 0
0 0 0
1957.04 -668.272 0
0 0 0
0 0 0
    <DataArray type="Float64" Name="MWall" NumberOfComponents="3"/>
0 0 2.02025
0 0 0
0 0 -0.0257586
0 0 0.0682077
0 0 0
0 0 -76.8034
0 0 0
0 0 0
    <DataArray type="Float64" Name="FHydro" NumberOfComponents="3"/>
0 0 0
0 0 0
0 0 0
0 0 0
0 0 0
0 0 0
0 0 0
0 0 0
    <DataArray type="Float64" Name="FSpringP" NumberOfComponents="3"/>
0 0 0
15.3392 13.8716 0
-15.3392 -13.8716 0
0 0 0
0 0 0
-359.137 396.148 0
0 0 0
359.137 -396.148 0
    <DataArray type="Float64" Name="FSpringW" NumberOfComponents="3"/>
15.7815 -12.6128 0
0 0 0
0.00633628 0.257508 0
0.0316311 -0.681343 0
0 0 0
500.375 582.666 0
0 0 0
0 0 0
    <DataArray type="Float64" Name="MRolling" NumberOfComponents="3"/>
0 0 -1.01012
0 0 0.258516
0 0 2.96728
0 0 -2.05239
0 0 0
0 0 -45.1377
0 0 0
0 0 6.73604
   </PointData>
   <CellData>
   </CellData>
   <Points>
    <DataArray type="Float64" Name="Points" NumberOfComponents="3"/>
4.4784 2.55266 0.7
4.33399 2.69677 0.7
4.19987 2.84508 0.7
4.19973 3.05927 0.7
4.28003 3.24753 0.7
4.43402 3.40302 0.7
4.67175 3.35382 0.7
4.58051 3.53583 0.7
   </Points>
   <Cells>
    <DataArray type="Int64" Name="connectivity" format="ascii">
0
1
2
3
4
5
6
7
    </DataArray>
    <DataArray type="Int64" Name="offsets" format="ascii">
1
2
3
4
5
6
7
8
    </DataArray>
    <DataArray type="Int64" Name="types" format="ascii">
1
1
1
1
1
1
1
1
    </DataArray>
   </Cells>
  </Piece>
 </UnstructuredGrid>
</VTKFile>