<?xml version="1.0"?>
<VTKFile type="UnstructuredGrid" version="0.1" byte_order="LittleEndian" compressor="vtkZLibDataCompressor">
 <UnstructuredGrid GhostLevel="0">
  <Piece NumberOfPoints="8" NumberOfCells="8">
   <PointData>
    <DataArray type="Float64" Name="radius"/>
0.1
0.1
0.1
0.1
0.1
0.1
0.1
0.1
    <DataArray type="Float64" Name="mass"/>
10.472
10.472
10.472
10.472
10.472
10.472
10.472
10.472
    <DataArray type="Float64" Name="particleIndex"/>
0
1
2
3
4
5
6
7
    <DataArray type="Float64" Name="clusterIndex"/>
0
1
2
3
4
5
6
7
    <DataArray type="Float64" Name="v" NumberOfComponents="3"/>
-0.000187313 0.000105559 0
-0.00013618 0.000166958 0
2.42774e-06 0.000217782 0
2.52415e-05 0.000222578 0
0.000255066 0.000211989 0
0.000277104 0.000186954 0
-5.08342e-06 0.000188174 0
0.00025758 0.000167933 0
    <DataArray type="Float64" Name="w" NumberOfComponents="3"/>
0 0 0.00268757
0 0 -0.00248108
0 0 -0.00161942
0 0 -0.000847425
0 0 -0.0202857
0 0 -0.00463828
0 0 -0.00364191
0 0 0.00560878
    <DataArray type="Float64" Name="FParticle" NumberOfComponents="3"/>
62.0415 -95.7918 0
83.0331 -60.2654 0
-240.056 68.3682 0
-105.43 21.374 0
28.7738 36.8103 0
19.2797 19.2722 0
104.565 -37.5596 0
47.792 47.7922 0
    <DataArray type="Float64" Name="FGrav" NumberOfComponents="3"/>
-102.73 0 0
-102.73 0 0
-102.73 0 0
-102.73 0 0
-102.73 0 0
-102.73 0 0
-102.73 0 0
-102.73 0 0
    <DataArray type="Float64" Name="MParticle" NumberOfComponents="3"/>
0 0 2.3837
0 0 2.87223
0 0 6.015
0 0 11.3895
0 0 6.25532
0 0 0
0 0 4.376
0 0 0
    <DataArray type="Float64" Name="FWall" NumberOfComponents="3"/>
42.8585 106.957 0
-21.5896 57.3133 0
308.756 -66.052 0
216.961 -12.7375 0
70.6916 -101.2 0
38.6842 -55.4336 0
0 0 0
25.2132 -36.1551 0
    <DataArray type="Float64" Name="MWall" NumberOfComponents="3"/>
0 0 -3.44394
0 0 -5.29868
0 0 4.40715
0 0 -0.270584
0 0 0
0 0 0
0 0 0
0 0 0
    <DataArray type="Float64" Name="FHydro" NumberOfComponents="3"/>
0 0 0
0 0 0
0 0 0
0 0 0
0 0 0
0 0 0
0 0 0
0 0 0
    <DataArray type="Float64" Name="FSpringP" NumberOfComponents="3"/>
-16.8595 -16.8511 0
13.3587 13.4437 0
-39.8377 24.0645 0
-18.6135 34.9337 0
59.9991 -17.692 0
0 0 0
1.95279 -37.8989 0
0 0 0
    <DataArray type="Float64" Name="FSpringW" NumberOfComponents="3"/>
-26.6782 21.7795 0
-41.0265 33.5325 0
-3.11391 -43.9614 0
0.192201 2.699 0
0 0 0
0 0 0
0 0 0
0 0 0
    <DataArray type="Float64" Name="MRolling" NumberOfComponents="3"/>
0 0 -2.7572
0 0 -1.12131
0 0 8.00893
0 0 3.61425
0 0 3.57686
0 0 1.21564
0 0 -0.592414
0 0 -1.21951
   </PointData>
   <CellData>
   </CellData>
   <Points>
    <DataArray type="Float64" Name="Points" NumberOfComponents="3"/>
4.48 2.55133 0.7
4.33869 2.69271 0.7
4.19934 2.83588 0.7
4.19939 3.0358 0.7
4.25592 3.22751 0.7
4.39728 3.36886 0.7
4.37252 2.9358 0.7
4.53865 3.51023 0.7
   </Points>
   <Cells>
    <DataArray type="Int64" Name="connectivity" format="ascii">
0
1
2
3
4
5
6
7
    </DataArray>
    <DataArray type="Int64" Name="offsets" format="ascii">
1
2
3
4
5
6
7
8
    </DataArray>
    <DataArray type="Int64" Name="types" format="ascii">
1
1
1
1
1
1
1
1
    </DataArray>
   </Cells>
  </Piece>
 </UnstructuredGrid>
</VTKFile>