<?xml version="1.0"?>
<VTKFile type="UnstructuredGrid" version="0.1" byte_order="LittleEndian" compressor="vtkZLibDataCompressor">
 <UnstructuredGrid GhostLevel="0">
  <Piece NumberOfPoints="8" NumberOfCells="8">
   <PointData>
    <DataArray type="Float64" Name="radius"/>
0.1
0.1
0.1
0.1
0.1
0.1
0.1
0.1
    <DataArray type="Float64" Name="mass"/>
10.472
10.472
10.472
10.472
10.472
10.472
10.472
10.472
    <DataArray type="Float64" Name="particleIndex"/>
0
1
2
3
4
5
6
7
    <DataArray type="Float64" Name="clusterIndex"/>
0
1
2
3
4
5
6
7
    <DataArray type="Float64" Name="v" NumberOfComponents="3"/>
-0.000418547 0.000287895 0
-0.000277296 0.000315455 0
8.05467e-06 0.000489291 0
7.1838e-05 0.000510549 0
0.000592626 0.000468302 0
0.00073027 0.00053206 0
3.4972e-05 0.000432528 0
0.000946414 0.000581698 0
    <DataArray type="Float64" Name="w" NumberOfComponents="3"/>
0 0 0.00651882
0 0 -0.00652348
0 0 0.000779182
0 0 0.00211083
0 0 -0.0209637
0 0 -0.00323554
0 0 -0.006675
0 0 0.00827197
    <DataArray type="Float64" Name="FParticle" NumberOfComponents="3"/>
63.8023 -111.562 0
96.7303 -53.6191 0
-256.808 74.036 0
-104.118 21.3537 0
25.5045 37.4102 0
23.7532 23.7439 0
103.738 -38.7627 0
47.3984 47.3998 0
    <DataArray type="Float64" Name="FGrav" NumberOfComponents="3"/>
-102.73 0 0
-102.73 0 0
-102.73 0 0
-102.73 0 0
-102.73 0 0
-102.73 0 0
-102.73 0 0
-102.73 0 0
    <DataArray type="Float64" Name="MParticle" NumberOfComponents="3"/>
0 0 3.37306
0 0 3.3838
0 0 5.67246
0 0 11.6082
0 0 6.19589
0 0 0
0 0 4.51137
0 0 0
    <DataArray type="Float64" Name="FWall" NumberOfComponents="3"/>
41.7455 123.915 0
-41.8084 54.1272 0
324.274 -73.0965 0
220.278 -13.808 0
71.0679 -101.642 0
37.4685 -53.6442 0
0 0 0
42.3175 -27.6816 0
    <DataArray type="Float64" Name="MWall" NumberOfComponents="3"/>
0 0 -4.59713
0 0 -6.66196
0 0 5.01336
0 0 -0.178875
0 0 0
0 0 0
0 0 0
0 0 -1.88573
    <DataArray type="Float64" Name="FHydro" NumberOfComponents="3"/>
0 0 0
0 0 0
0 0 0
0 0 0
0 0 0
0 0 0
0 0 0
0 0 0
    <DataArray type="Float64" Name="FSpringP" NumberOfComponents="3"/>
-23.8589 -23.8434 0
23.7819 23.7684 0
-44.6317 20.7017 0
-15.9514 35.9904 0
59.4226 -17.5458 0
0 0 0
1.23748 -39.0715 0
0 0 0
    <DataArray type="Float64" Name="FSpringW" NumberOfComponents="3"/>
-35.6243 29.0563 0
-51.5981 42.1402 0
-3.52221 -50.0097 0
0.126372 1.78428 0
0 0 0
0 0 0
0 0 0
15.4632 10.7929 0
    <DataArray type="Float64" Name="MRolling" NumberOfComponents="3"/>
0 0 -3.06827
0 0 -0.84116
0 0 8.43156
0 0 3.6407
0 0 3.64097
0 0 1.14075
0 0 -0.591762
0 0 -1.27355
   </PointData>
   <CellData>
   </CellData>
   <Points>
    <DataArray type="Float64" Name="Points" NumberOfComponents="3"/>
4.47992 2.55138 0.7
4.33864 2.69277 0.7
4.19934 2.83596 0.7
4.19939 3.03588 0.7
4.25599 3.22756 0.7
4.39735 3.36891 0.7
4.37253 2.93588 0.7
4.53872 3.51028 0.7
   </Points>
   <Cells>
    <DataArray type="Int64" Name="connectivity" format="ascii">
0
1
2
3
4
5
6
7
    </DataArray>
    <DataArray type="Int64" Name="offsets" format="ascii">
1
2
3
4
5
6
7
8
    </DataArray>
    <DataArray type="Int64" Name="types" format="ascii">
1
1
1
1
1
1
1
1
    </DataArray>
   </Cells>
  </Piece>
 </UnstructuredGrid>
</VTKFile>