<?xml version="1.0"?>
<VTKFile type="UnstructuredGrid" version="0.1" byte_order="LittleEndian" compressor="vtkZLibDataCompressor">
 <UnstructuredGrid GhostLevel="0">
  <Piece NumberOfPoints="8" NumberOfCells="8">
   <PointData>
    <DataArray type="Float64" Name="radius"/>
0.1
0.1
0.1
0.1
0.1
0.1
0.1
0.1
    <DataArray type="Float64" Name="mass"/>
10.472
10.472
10.472
10.472
10.472
10.472
10.472
10.472
    <DataArray type="Float64" Name="particleIndex"/>
0
1
2
3
4
5
6
7
    <DataArray type="Float64" Name="clusterIndex"/>
0
1
2
3
4
5
6
7
    <DataArray type="Float64" Name="v" NumberOfComponents="3"/>
-0.000777634 0.000555588 0
-0.000866492 0.000455314 0
-1.86777e-05 0.000147928 0
-0.000445363 -0.000890158 0
0.00572706 -0.00327467 0
0.0010013 0.000574807 0
0.00010181 0.000237945 0
0.000510932 0.000414633 0
    <DataArray type="Float64" Name="w" NumberOfComponents="3"/>
0 0 0.0105239
0 0 -0.014143
0 0 0.00616413
0 0 0.00669214
0 0 -0.0703115
0 0 0.0523588
0 0 0.0495625
0 0 -0.00180341
    <DataArray type="Float64" Name="FParticle" NumberOfComponents="3"/>
35.4284 -77.5014 0
92.8818 -161.307 0
-140.107 -421.275 0
-531.107 -129.879 0
275.888 -180.188 0
154.88 674.25 0
106.913 15.9339 0
5.22389 279.966 0
    <DataArray type="Float64" Name="FGrav" NumberOfComponents="3"/>
-102.73 0 0
-102.73 0 0
-102.73 0 0
-102.73 0 0
-102.73 0 0
-102.73 0 0
-102.73 0 0
-102.73 0 0
    <DataArray type="Float64" Name="MParticle" NumberOfComponents="3"/>
0 0 2.97635
0 0 10.8078
0 0 4.13247
0 0 15.008
0 0 -34.5016
0 0 -74.3423
0 0 -1.7011
0 0 -19.4325
    <DataArray type="Float64" Name="FWall" NumberOfComponents="3"/>
52.6103 56.4626 0
103.038 122.91 0
230.486 431.369 0
657.737 276.415 0
0 0 0
-596.374 -826.253 0
0 0 0
-31.3788 -242.369 0
    <DataArray type="Float64" Name="MWall" NumberOfComponents="3"/>
0 0 0.407368
0 0 0
0 0 -10.1071
0 0 -33.5863
0 0 0
0 0 95.2463
0 0 0
0 0 15.9323
    <DataArray type="Float64" Name="FHydro" NumberOfComponents="3"/>
0 0 0
0 0 0
0 0 0
0 0 0
0 0 0
0 0 0
0 0 0
0 0 0
    <DataArray type="Float64" Name="FSpringP" NumberOfComponents="3"/>
-21.0425 -21.0495 0
-34.2958 -34.366 0
92.3282 55.4881 0
-241.509 41.7961 0
590.378 -438.765 0
-256.939 244.689 0
8.45263 14.7624 0
-137.373 137.445 0
    <DataArray type="Float64" Name="FSpringW" NumberOfComponents="3"/>
3.12284 -2.61587 0
0 0 0
-77.3767 65.0248 0
30.9569 334.433 0
0 0 0
-795.53 -523.752 0
0 0 0
-133.149 -87.4939 0
    <DataArray type="Float64" Name="MRolling" NumberOfComponents="3"/>
0 0 1.14209
0 0 4.90465
0 0 -14.3134
0 0 20.3476
0 0 -8.30633
0 0 -4.26827
0 0 0.00982384
0 0 -2.69835
   </PointData>
   <CellData>
   </CellData>
   <Points>
    <DataArray type="Float64" Name="Points" NumberOfComponents="3"/>
4.48196 2.54974 0.7
4.34057 2.69108 0.7
4.19923 2.83222 0.7
4.19884 3.03159 0.7
4.25409 3.22291 0.7
4.39272 3.36595 0.7
4.37235 2.93224 0.7
4.53404 3.5072 0.7
   </Points>
   <Cells>
    <DataArray type="Int64" Name="connectivity" format="ascii">
0
1
2
3
4
5
6
7
    </DataArray>
    <DataArray type="Int64" Name="offsets" format="ascii">
1
2
3
4
5
6
7
8
    </DataArray>
    <DataArray type="Int64" Name="types" format="ascii">
1
1
1
1
1
1
1
1
    </DataArray>
   </Cells>
  </Piece>
 </UnstructuredGrid>
</VTKFile>