<?xml version="1.0"?>
<VTKFile type="UnstructuredGrid" version="0.1" byte_order="LittleEndian" compressor="vtkZLibDataCompressor">
 <UnstructuredGrid GhostLevel="0">
  <Piece NumberOfPoints="8" NumberOfCells="8">
   <PointData>
    <DataArray type="Float64" Name="radius"/>
0.1
0.1
0.1
0.1
0.1
0.1
0.1
0.1
    <DataArray type="Float64" Name="mass"/>
10.472
10.472
10.472
10.472
10.472
10.472
10.472
10.472
    <DataArray type="Float64" Name="particleIndex"/>
0
1
2
3
4
5
6
7
    <DataArray type="Float64" Name="clusterIndex"/>
0
1
2
3
4
5
6
7
    <DataArray type="Float64" Name="v" NumberOfComponents="3"/>
-8.24087e-05 2.60122e-05 0
0.000916967 0.00101972 0
3.21979e-05 6.03942e-05 0
-0.000139777 0.000470867 0
0.00328834 -0.00118554 0
0.000769698 0.000611581 0
-0.00019132 0.000250325 0
0.000660917 0.000562823 0
    <DataArray type="Float64" Name="w" NumberOfComponents="3"/>
0 0 -0.0249364
0 0 0.0125068
0 0 0.00166426
0 0 -0.0365877
0 0 0.00679366
0 0 -0.00590098
0 0 0.0214105
0 0 0.00711771
    <DataArray type="Float64" Name="FParticle" NumberOfComponents="3"/>
85.6464 -135.022 0
102.352 -4.59291 0
-265.16 95.0384 0
-180.565 -363.631 0
-131.693 139.561 0
179.914 178.615 0
135.81 10.6991 0
73.6939 79.3316 0
    <DataArray type="Float64" Name="FGrav" NumberOfComponents="3"/>
-102.73 0 0
-102.73 0 0
-102.73 0 0
-102.73 0 0
-102.73 0 0
-102.73 0 0
-102.73 0 0
-102.73 0 0
    <DataArray type="Float64" Name="MParticle" NumberOfComponents="3"/>
0 0 3.42081
0 0 -0.240838
0 0 -3.66165
0 0 0
0 0 0
0 0 -0.401379
0 0 0
0 0 -0.401379
    <DataArray type="Float64" Name="FWall" NumberOfComponents="3"/>
-29.2964 190.111 0
0 0 0
344.743 -55.6641 0
389.387 -27.061 0
0 0 0
130.634 -185.777 0
0 0 0
29.4642 -84.338 0
    <DataArray type="Float64" Name="MWall" NumberOfComponents="3"/>
0 0 -14.276
0 0 0
0 0 3.16324
0 0 0
0 0 0
0 0 0
0 0 0
0 0 2.43666
    <DataArray type="Float64" Name="FHydro" NumberOfComponents="3"/>
0 0 0
0 0 0
0 0 0
0 0 0
0 0 0
0 0 0
0 0 0
0 0 0
    <DataArray type="Float64" Name="FSpringP" NumberOfComponents="3"/>
-24.2978 -24.0793 0
50.4571 49.7008 0
-26.1592 -25.6215 0
0 0 0
0 0 0
2.83746 -2.83889 0
0 0 0
-2.83746 2.83889 0
    <DataArray type="Float64" Name="FSpringW" NumberOfComponents="3"/>
-110.7 90.1434 0
0 0 0
-2.19278 -31.5563 0
0 0 0
0 0 0
0 0 0
0 0 0
-19.9392 -14.0058 0
    <DataArray type="Float64" Name="MRolling" NumberOfComponents="3"/>
0 0 3.35935
0 0 -1.93741
0 0 -5.35343
0 0 10.2241
0 0 -3.8876
0 0 6.89187
0 0 -0.784207
0 0 -2.26001
   </PointData>
   <CellData>
   </CellData>
   <Points>
    <DataArray type="Float64" Name="Points" NumberOfComponents="3"/>
4.4798 2.55148 0.7
4.33913 2.69343 0.7
4.19934 2.83615 0.7
4.19933 3.03615 0.7
4.25785 3.22697 0.7
4.39782 3.36933 0.7
4.37245 2.93615 0.7
4.5392 3.51064 0.7
   </Points>
   <Cells>
    <DataArray type="Int64" Name="connectivity" format="ascii">
0
1
2
3
4
5
6
7
    </DataArray>
    <DataArray type="Int64" Name="offsets" format="ascii">
1
2
3
4
5
6
7
8
    </DataArray>
    <DataArray type="Int64" Name="types" format="ascii">
1
1
1
1
1
1
1
1
    </DataArray>
   </Cells>
  </Piece>
 </UnstructuredGrid>
</VTKFile>