<?xml version="1.0"?>
<VTKFile type="UnstructuredGrid" version="0.1" byte_order="LittleEndian" compressor="vtkZLibDataCompressor">
 <UnstructuredGrid GhostLevel="0">
  <Piece NumberOfPoints="8" NumberOfCells="8">
   <PointData>
    <DataArray type="Float64" Name="radius"/>
0.1
0.1
0.1
0.1
0.1
0.1
0.1
0.1
    <DataArray type="Float64" Name="mass"/>
10.472
10.472
10.472
10.472
10.472
10.472
10.472
10.472
    <DataArray type="Float64" Name="particleIndex"/>
0
1
2
3
4
5
6
7
    <DataArray type="Float64" Name="clusterIndex"/>
0
1
2
3
4
5
6
7
    <DataArray type="Float64" Name="v" NumberOfComponents="3"/>
-0.00048925 0.000339489 0
-0.000319203 0.000380406 0
6.85717e-06 0.000629861 0
-1.62063e-05 0.000752464 0
0.000909515 0.000514807 0
0.000705458 0.000553893 0
-4.56642e-05 0.000705326 0
0.000717536 0.000513707 0
    <DataArray type="Float64" Name="w" NumberOfComponents="3"/>
0 0 0.00752577
0 0 -0.00784677
0 0 0.00167512
0 0 0.00566557
0 0 -0.021576
0 0 -0.00171612
0 0 -0.0102681
0 0 0.0098318
    <DataArray type="Float64" Name="FParticle" NumberOfComponents="3"/>
64.4402 -121.078 0
105.076 -46.99 0
-264.961 79.1138 0
-110.493 19.1503 0
26.0288 34.7227 0
28.3702 28.3628 0
102.441 -42.3817 0
49.098 49.0996 0
    <DataArray type="Float64" Name="FGrav" NumberOfComponents="3"/>
-102.73 0 0
-102.73 0 0
-102.73 0 0
-102.73 0 0
-102.73 0 0
-102.73 0 0
-102.73 0 0
-102.73 0 0
    <DataArray type="Float64" Name="MParticle" NumberOfComponents="3"/>
0 0 3.99995
0 0 3.56396
0 0 5.13965
0 0 12.451
0 0 6.74547
0 0 0
0 0 4.89438
0 0 0
    <DataArray type="Float64" Name="FWall" NumberOfComponents="3"/>
41.1693 133.917 0
-52.5149 48.7164 0
333.582 -78.5707 0
226.681 -12.8899 0
68.7873 -98.3179 0
38.2701 -54.7619 0
0 0 0
44.7542 -28.1964 0
    <DataArray type="Float64" Name="MWall" NumberOfComponents="3"/>
0 0 -5.27048
0 0 -7.14883
0 0 5.50259
0 0 -0.309707
0 0 0
0 0 0
0 0 0
0 0 -2.05487
    <DataArray type="Float64" Name="FHydro" NumberOfComponents="3"/>
0 0 0
0 0 0
0 0 0
0 0 0
0 0 0
0 0 0
0 0 0
0 0 0
    <DataArray type="Float64" Name="FSpringP" NumberOfComponents="3"/>
-28.2945 -28.2733 0
31.4202 31.3128 0
-46.9643 17.6032 0
-20.1895 40.8646 0
64.6884 -19.1194 0
0 0 0
-0.660227 -42.3879 0
0 0 0
    <DataArray type="Float64" Name="FSpringW" NumberOfComponents="3"/>
-40.8512 33.3013 0
-55.3794 45.2074 0
-3.85203 -54.8909 0
0.217989 3.08939 0
0 0 0
0 0 0
0 0 0
16.8472 11.7652 0
    <DataArray type="Float64" Name="MRolling" NumberOfComponents="3"/>
0 0 -3.2522
0 0 -0.627965
0 0 8.65557
0 0 3.7542
0 0 3.6322
0 0 1.1356
0 0 -0.595236
0 0 -1.32201
   </PointData>
   <CellData>
   </CellData>
   <Points>
    <DataArray type="Float64" Name="Points" NumberOfComponents="3"/>
4.47988 2.55142 0.7
4.3386 2.6928 0.7
4.19934 2.83601 0.7
4.19939 3.03593 0.7
4.25604 3.2276 0.7
4.39739 3.36894 0.7
4.37253 2.93593 0.7
4.53876 3.51031 0.7
   </Points>
   <Cells>
    <DataArray type="Int64" Name="connectivity" format="ascii">
0
1
2
3
4
5
6
7
    </DataArray>
    <DataArray type="Int64" Name="offsets" format="ascii">
1
2
3
4
5
6
7
8
    </DataArray>
    <DataArray type="Int64" Name="types" format="ascii">
1
1
1
1
1
1
1
1
    </DataArray>
   </Cells>
  </Piece>
 </UnstructuredGrid>
</VTKFile>