<?xml version="1.0"?>
<VTKFile type="UnstructuredGrid" version="0.1" byte_order="LittleEndian" compressor="vtkZLibDataCompressor">
 <UnstructuredGrid GhostLevel="0">
  <Piece NumberOfPoints="8" NumberOfCells="8">
   <PointData>
    <DataArray type="Float64" Name="radius"/>
0.1
0.1
0.1
0.1
0.1
0.1
0.1
0.1
    <DataArray type="Float64" Name="mass"/>
10.472
10.472
10.472
10.472
10.472
10.472
10.472
10.472
    <DataArray type="Float64" Name="particleIndex"/>
0
1
2
3
4
5
6
7
    <DataArray type="Float64" Name="clusterIndex"/>
0
1
2
3
4
5
6
7
    <DataArray type="Float64" Name="v" NumberOfComponents="3"/>
-0.0126515 0.0096065 0
-0.0110534 0.00887631 0
-0.004183 0.0122114 0
-0.000774794 0.0100033 0
0.0127441 0.00234523 0
0.00655705 0.004421 0
-0.00168545 0.00938471 0
0.00471024 0.00406539 0
    <DataArray type="Float64" Name="w" NumberOfComponents="3"/>
0 0 -0.0295126
0 0 0.20378
0 0 -0.208397
0 0 -0.0737871
0 0 -0.0635747
0 0 0.0603451
0 0 0.174426
0 0 0.0359424
    <DataArray type="Float64" Name="FParticle" NumberOfComponents="3"/>
-108.682 -791.371 0
173.201 -833.997 0
1134.92 367.179 0
-1730.17 296.833 0
201.481 -156.577 0
220.538 700.334 0
89.8364 12.0313 0
18.8714 405.569 0
    <DataArray type="Float64" Name="FGrav" NumberOfComponents="3"/>
-102.73 0 0
-102.73 0 0
-102.73 0 0
-102.73 0 0
-102.73 0 0
-102.73 0 0
-102.73 0 0
-102.73 0 0
    <DataArray type="Float64" Name="MParticle" NumberOfComponents="3"/>
0 0 63.629
0 0 168.977
0 0 -14.9736
0 0 -108.211
0 0 -46.9351
0 0 -88.3244
0 0 -3.13618
0 0 -27.3439
    <DataArray type="Float64" Name="FWall" NumberOfComponents="3"/>
262.267 327.12 0
-802.907 1161.13 0
0 0 0
1310.92 -710.131 0
0 0 0
-715.742 -915.825 0
0 0 0
-151.664 -401.828 0
    <DataArray type="Float64" Name="MWall" NumberOfComponents="3"/>
0 0 0
0 0 -135.366
0 0 0
0 0 63.2418
0 0 0
0 0 111.3
0 0 0
0 0 35.5385
    <DataArray type="Float64" Name="FHydro" NumberOfComponents="3"/>
0 0 0
0 0 0
0 0 0
0 0 0
0 0 0
0 0 0
0 0 0
0 0 0
    <DataArray type="Float64" Name="FSpringP" NumberOfComponents="3"/>
-450.059 -449.792 0
-324.945 -263.787 0
1975.07 731.692 0
-1343.33 -3.97654 0
566.682 -471.417 0
-239.159 236.532 0
9.0831 27.3965 0
-193.349 193.352 0
    <DataArray type="Float64" Name="FSpringW" NumberOfComponents="3"/>
0 0 0
-1054.2 849.149 0
0 0 0
-36.9067 -631.34 0
0 0 0
-909.05 -642.186 0
0 0 0
-290.549 -204.645 0
    <DataArray type="Float64" Name="MRolling" NumberOfComponents="3"/>
0 0 10.8001
0 0 -16.6237
0 0 12.6511
0 0 -38.1792
0 0 0.420523
0 0 -0.434322
0 0 -0.463485
0 0 -6.3243
   </PointData>
   <CellData>
   </CellData>
   <Points>
    <DataArray type="Float64" Name="Points" NumberOfComponents="3"/>
4.47852 2.55232 0.7
4.33746 2.69347 0.7
4.20284 2.83967 0.7
4.19898 3.03837 0.7
4.25782 3.22846 0.7
4.39814 3.36963 0.7
4.37439 2.94239 0.7
4.53936 3.51085 0.7
   </Points>
   <Cells>
    <DataArray type="Int64" Name="connectivity" format="ascii">
0
1
2
3
4
5
6
7
    </DataArray>
    <DataArray type="Int64" Name="offsets" format="ascii">
1
2
3
4
5
6
7
8
    </DataArray>
    <DataArray type="Int64" Name="types" format="ascii">
1
1
1
1
1
1
1
1
    </DataArray>
   </Cells>
  </Piece>
 </UnstructuredGrid>
</VTKFile>