<?xml version="1.0"?>
<VTKFile type="UnstructuredGrid" version="0.1" byte_order="LittleEndian" compressor="vtkZLibDataCompressor">
 <UnstructuredGrid GhostLevel="0">
  <Piece NumberOfPoints="8" NumberOfCells="8">
   <PointData>
    <DataArray type="Float64" Name="radius"/>
0.1
0.1
0.1
0.1
0.1
0.1
0.1
0.1
    <DataArray type="Float64" Name="mass"/>
10.472
10.472
10.472
10.472
10.472
10.472
10.472
10.472
    <DataArray type="Float64" Name="particleIndex"/>
0
1
2
3
4
5
6
7
    <DataArray type="Float64" Name="clusterIndex"/>
0
1
2
3
4
5
6
7
    <DataArray type="Float64" Name="v" NumberOfComponents="3"/>
-0.000166312 0.000135782 0
-0.000158451 0.000151309 0
-0.000187637 -5.79479e-05 0
-7.06197e-05 -0.000482053 0
-8.05282e-05 -0.000157935 0
0.000447899 0.000194442 0
-0.0132859 -0.0272939 0
0.000763406 0.000468014 0
    <DataArray type="Float64" Name="w" NumberOfComponents="3"/>
0 0 0.00267183
0 0 -0.00135999
0 0 0.000866609
0 0 -0.0112111
0 0 0.00466693
0 0 -0.0101748
0 0 -0.288865
0 0 0.0100157
    <DataArray type="Float64" Name="FParticle" NumberOfComponents="3"/>
64.902 -93.4354 0
78.1197 -52.895 0
-186.952 35.9088 0
-136.99 32.4242 0
10.7211 83.8881 0
46.9879 -2.86403 0
77.2852 -48.9556 0
45.926 45.9289 0
    <DataArray type="Float64" Name="FGrav" NumberOfComponents="3"/>
-102.73 0 0
-102.73 0 0
-102.73 0 0
-102.73 0 0
-102.73 0 0
-102.73 0 0
-102.73 0 0
-102.73 0 0
    <DataArray type="Float64" Name="MParticle" NumberOfComponents="3"/>
0 0 2.01503
0 0 1.97038
0 0 4.34902
0 0 11.6892
0 0 9.87643
0 0 3.52401
0 0 0.943106
0 0 0
    <DataArray type="Float64" Name="FWall" NumberOfComponents="3"/>
38.7377 104.361 0
-3.89911 48.0229 0
256.911 -49.7952 0
265.678 -31.6129 0
119.918 -76.087 0
35.0197 -50.2277 0
0 0 0
47.6207 -27.0668 0
    <DataArray type="Float64" Name="MWall" NumberOfComponents="3"/>
0 0 -3.60045
0 0 -3.34148
0 0 3.15212
0 0 1.26196
0 0 -5.47895
0 0 0
0 0 0
0 0 -2.35991
    <DataArray type="Float64" Name="FHydro" NumberOfComponents="3"/>
0 0 0
0 0 0
0 0 0
0 0 0
0 0 0
0 0 0
0 0 0
0 0 0
    <DataArray type="Float64" Name="FSpringP" NumberOfComponents="3"/>
-14.2517 -14.2451 0
14.5717 14.5565 0
-44.2567 -0.313825 0
-12.7985 26.4032 0
36.0174 6.96491 0
24.9163 -24.9207 0
-4.19852 -8.44496 0
0 0 0
    <DataArray type="Float64" Name="FSpringW" NumberOfComponents="3"/>
-27.8876 22.773 0
-25.8695 21.1499 0
-2.22682 -31.4425 0
-0.898362 -12.5876 0
44.9288 31.3575 0
0 0 0
0 0 0
19.3628 13.4907 0
    <DataArray type="Float64" Name="MRolling" NumberOfComponents="3"/>
0 0 -2.66654
0 0 -1.15747
0 0 5.66673
0 0 6.19755
0 0 1.3844
0 0 2.03014
0 0 0.454992
0 0 -1.31338
   </PointData>
   <CellData>
   </CellData>
   <Points>
    <DataArray type="Float64" Name="Points" NumberOfComponents="3"/>
4.48002 2.55132 0.7
4.33871 2.69269 0.7
4.19937 2.83588 0.7
4.19936 3.03577 0.7
4.25585 3.22747 0.7
4.39721 3.36881 0.7
4.37837 2.94678 0.7
4.53858 3.51019 0.7
   </Points>
   <Cells>
    <DataArray type="Int64" Name="connectivity" format="ascii">
0
1
2
3
4
5
6
7
    </DataArray>
    <DataArray type="Int64" Name="offsets" format="ascii">
1
2
3
4
5
6
7
8
    </DataArray>
    <DataArray type="Int64" Name="types" format="ascii">
1
1
1
1
1
1
1
1
    </DataArray>
   </Cells>
  </Piece>
 </UnstructuredGrid>
</VTKFile>