<?xml version="1.0"?>
<VTKFile type="UnstructuredGrid" version="0.1" byte_order="LittleEndian" compressor="vtkZLibDataCompressor">
 <UnstructuredGrid GhostLevel="0">
  <Piece NumberOfPoints="8" NumberOfCells="8">
   <PointData>
    <DataArray type="Float64" Name="radius"/>
0.1
0.1
0.1
0.1
0.1
0.1
0.1
0.1
    <DataArray type="Float64" Name="mass"/>
10.472
10.472
10.472
10.472
10.472
10.472
10.472
10.472
    <DataArray type="Float64" Name="particleIndex"/>
0
1
2
3
4
5
6
7
    <DataArray type="Float64" Name="clusterIndex"/>
0
1
2
3
4
5
6
7
    <DataArray type="Float64" Name="v" NumberOfComponents="3"/>
0.0154257 -0.0158405 0
0.0150211 -0.0155748 0
0.0246825 -0.00605271 0
-0.000800731 -0.00804777 0
0.00445548 -0.00972044 0
-0.00356105 -0.00225288 0
0.00868597 0.0142667 0
-0.00349142 -0.00245793 0
    <DataArray type="Float64" Name="w" NumberOfComponents="3"/>
0 0 -0.249281
0 0 -0.330272
0 0 0.308032
0 0 -0.0650826
0 0 0.0184249
0 0 0.0824601
0 0 0.168958
0 0 -0.0497457
    <DataArray type="Float64" Name="FParticle" NumberOfComponents="3"/>
54.245 -126.313 0
486.815 -473.994 0
-472.202 -303.515 0
-700.127 77.7038 0
88.8868 34.9805 0
578.957 215.295 0
87.2522 8.50556 0
-123.828 567.338 0
    <DataArray type="Float64" Name="FGrav" NumberOfComponents="3"/>
-102.73 0 0
-102.73 0 0
-102.73 0 0
-102.73 0 0
-102.73 0 0
-102.73 0 0
-102.73 0 0
-102.73 0 0
    <DataArray type="Float64" Name="MParticle" NumberOfComponents="3"/>
0 0 5.10544
0 0 5.10544
0 0 -2.56939
0 0 27.2592
0 0 9.69824
0 0 -63.7328
0 0 0.109203
0 0 -48.8503
    <DataArray type="Float64" Name="FWall" NumberOfComponents="3"/>
-12.7159 199.052 0
311.392 302.41 0
0 0 0
1089.4 -41.5651 0
0 0 0
-670.352 -692.216 0
0 0 0
-77.4757 -465.699 0
    <DataArray type="Float64" Name="MWall" NumberOfComponents="3"/>
0 0 -15.1559
0 0 0
0 0 0
0 0 -10.8125
0 0 0
0 0 93.6796
0 0 0
0 0 31.4199
    <DataArray type="Float64" Name="FHydro" NumberOfComponents="3"/>
0 0 0
0 0 0
0 0 0
0 0 0
0 0 0
0 0 0
0 0 0
0 0 0
    <DataArray type="Float64" Name="FSpringP" NumberOfComponents="3"/>
-36.0741 -36.1277 0
36.0741 36.1277 0
15.4431 -20.535 0
-221.836 105.303 0
346.817 -175.555 0
231.068 -250.231 0
-25.8204 -4.15909 0
-345.672 345.177 0
    <DataArray type="Float64" Name="FSpringW" NumberOfComponents="3"/>
-105.669 108.648 0
0 0 0
0 0 0
14.8182 107.105 0
0 0 0
-791.204 -501.581 0
0 0 0
-265.645 -167.791 0
    <DataArray type="Float64" Name="MRolling" NumberOfComponents="3"/>
0 0 1.95514
0 0 13.3604
0 0 -8.6177
0 0 31.0409
0 0 -9.21917
0 0 7.40966
0 0 -0.0136504
0 0 8.61698
   </PointData>
   <CellData>
   </CellData>
   <Points>
    <DataArray type="Float64" Name="Points" NumberOfComponents="3"/>
4.49688 2.53584 0.7
4.35546 2.67706 0.7
4.22209 2.82503 0.7
4.19758 3.02266 0.7
4.26285 3.2107 0.7
4.38987 3.36402 0.7
4.38189 2.94521 0.7
4.53097 3.50532 0.7
   </Points>
   <Cells>
    <DataArray type="Int64" Name="connectivity" format="ascii">
0
1
2
3
4
5
6
7
    </DataArray>
    <DataArray type="Int64" Name="offsets" format="ascii">
1
2
3
4
5
6
7
8
    </DataArray>
    <DataArray type="Int64" Name="types" format="ascii">
1
1
1
1
1
1
1
1
    </DataArray>
   </Cells>
  </Piece>
 </UnstructuredGrid>
</VTKFile>