<?xml version="1.0"?>
<VTKFile type="UnstructuredGrid" version="0.1" byte_order="LittleEndian" compressor="vtkZLibDataCompressor">
 <UnstructuredGrid GhostLevel="0">
  <Piece NumberOfPoints="8" NumberOfCells="8">
   <PointData>
    <DataArray type="Float64" Name="radius"/>
0.1
0.1
0.1
0.1
0.1
0.1
0.1
0.1
    <DataArray type="Float64" Name="mass"/>
10.472
10.472
10.472
10.472
10.472
10.472
10.472
10.472
    <DataArray type="Float64" Name="particleIndex"/>
0
1
2
3
4
5
6
7
    <DataArray type="Float64" Name="clusterIndex"/>
0
1
2
3
4
5
6
7
    <DataArray type="Float64" Name="v" NumberOfComponents="3"/>
-0.000287739 -0.000279574 0
0.00178025 0.00189768 0
-0.00133485 0.000494302 0
0.000958486 7.59368e-05 0
0.000845592 -0.000198845 0
-0.00406142 0.00234461 0
0.000310411 -0.00190242 0
0.00100602 -0.00242067 0
    <DataArray type="Float64" Name="w" NumberOfComponents="3"/>
0 0 0.00614695
0 0 -0.0853912
0 0 -0.0961544
0 0 -0.0779962
0 0 -0.101063
0 0 -0.00282803
0 0 0.00158506
0 0 0.0451773
    <DataArray type="Float64" Name="FParticle" NumberOfComponents="3"/>
32.8031 -76.5454 0
35.0108 -81.4488 0
-131.12 -174.415 0
-127.77 36.4923 0
-37.4244 204.994 0
90.8838 40.8808 0
100.172 -37.346 0
37.4444 87.3881 0
    <DataArray type="Float64" Name="FGrav" NumberOfComponents="3"/>
-102.73 0 0
-102.73 0 0
-102.73 0 0
-102.73 0 0
-102.73 0 0
-102.73 0 0
-102.73 0 0
-102.73 0 0
    <DataArray type="Float64" Name="MParticle" NumberOfComponents="3"/>
0 0 3.09287
0 0 9.47829
0 0 8.76783
0 0 2.19904
0 0 0
0 0 -3.5309
0 0 4.58144
0 0 -3.5309
    <DataArray type="Float64" Name="FWall" NumberOfComponents="3"/>
48.1887 53.4574 0
54.8252 29.4398 0
373.475 126.855 0
231.399 -117.689 0
50.0779 -242.804 0
24.8625 -121.047 0
0 0 0
51.96 -36.1344 0
    <DataArray type="Float64" Name="MWall" NumberOfComponents="3"/>
0 0 0.262603
0 0 2.31115
0 0 15.7017
0 0 9.64158
0 0 9.20731
0 0 4.58943
0 0 0
0 0 -2.3505
    <DataArray type="Float64" Name="FHydro" NumberOfComponents="3"/>
0 0 0
0 0 0
0 0 0
0 0 0
0 0 0
0 0 0
0 0 0
0 0 0
    <DataArray type="Float64" Name="FSpringP" NumberOfComponents="3"/>
-21.8704 -21.8694 0
-23.2567 -23.307 0
33.2187 65.8107 0
10.9695 19.0591 0
0 0 0
24.9691 -24.9654 0
0.938963 -39.6934 0
-24.9691 24.9654 0
    <DataArray type="Float64" Name="FSpringW" NumberOfComponents="3"/>
2.01337 -1.68594 0
17.7138 -14.8446 0
95.2571 -111.287 0
-8.66541 -96.0256 0
-76.8182 -50.7584 0
-38.3112 -25.2695 0
0 0 0
19.627 12.9332 0
    <DataArray type="Float64" Name="MRolling" NumberOfComponents="3"/>
0 0 -1.82507
0 0 0.744004
0 0 7.33049
0 0 8.43923
0 0 3.78367
0 0 1.82887
0 0 -0.57268
0 0 -1.61661
   </PointData>
   <CellData>
   </CellData>
   <Points>
    <DataArray type="Float64" Name="Points" NumberOfComponents="3"/>
4.48193 2.54976 0.7
4.34057 2.69113 0.7
4.19919 2.83236 0.7
4.19907 3.03204 0.7
4.25161 3.22466 0.7
4.39294 3.36592 0.7
4.37236 2.9323 0.7
4.53429 3.50729 0.7
   </Points>
   <Cells>
    <DataArray type="Int64" Name="connectivity" format="ascii">
0
1
2
3
4
5
6
7
    </DataArray>
    <DataArray type="Int64" Name="offsets" format="ascii">
1
2
3
4
5
6
7
8
    </DataArray>
    <DataArray type="Int64" Name="types" format="ascii">
1
1
1
1
1
1
1
1
    </DataArray>
   </Cells>
  </Piece>
 </UnstructuredGrid>
</VTKFile>